<?xml version="1.0" encoding="ISO-8859-1"?>
<modeling>
 <generator>
  <i name="program" type="string">vasp </i>
  <i name="version" type="string">5.4.4.18Apr17-6-g9f103f2a35  </i>
  <i name="subversion" type="string">(build Mar 16 2023 09:39:13) complex            parallel </i>
  <i name="platform" type="string">LinuxIFC </i>
  <i name="date" type="string">2024 04 29 </i>
  <i name="time" type="string">18:33:54 </i>
 </generator>
 <incar>
  <i type="int" name="ISTART">     0</i>
  <i type="string" name="PREC">a</i>
  <i type="logical" name="ADDGRID"> T  </i>
  <i type="int" name="IBRION">    -1</i>
  <i name="EDIFF">      0.00000100</i>
  <i name="EDIFFG">     -0.01000000</i>
  <i type="int" name="NSW">     1</i>
  <i type="int" name="ISIF">     2</i>
  <i type="int" name="ISYM">     0</i>
  <i name="ENCUT">    600.00000000</i>
  <i name="POTIM">      1.00000000</i>
  <i type="string" name="LREAL">  A</i>
  <i type="int" name="ISMEAR">     0</i>
  <i name="SIGMA">      0.05000000</i>
  <i name="KSPACING">      0.30000000</i>
  <i type="logical" name="KGAMMA"> T  </i>
  <i type="logical" name="LWAVE"> F  </i>
  <i type="logical" name="LCHARG"> F  </i>
  <i type="logical" name="LSCALAPACK"> F  </i>
  <v type="int" name="KPOINT_BSE">    -1     0     0     0</v>
 </incar>
 <structure name="primitive_cell" >
  <crystal>
   <varray name="basis" >
    <v>      11.62817333       0.00000000       0.00000000 </v>
    <v>       0.00000000      11.62817333       0.00000000 </v>
    <v>       0.00000000       0.00000000      11.62817333 </v>
   </varray>
   <i name="volume">   1572.29665425 </i>
   <varray name="rec_basis" >
    <v>       0.08599803       0.00000000       0.00000000 </v>
    <v>       0.00000000       0.08599803       0.00000000 </v>
    <v>       0.00000000       0.00000000       0.08599803 </v>
   </varray>
  </crystal>
  <varray name="positions" >
   <v>       0.02989138      -0.11387630       0.41011523 </v>
   <v>       0.03128403      -0.13843375      -0.39548758 </v>
   <v>      -0.11323175      -0.24099617       0.35964453 </v>
   <v>      -0.07265012       0.04658180       0.32508747 </v>
   <v>       0.08315244      -0.31494505       0.38129686 </v>
   <v>       0.03587362      -0.13382922       0.19589136 </v>
   <v>       0.24668186      -0.13267548       0.43124930 </v>
   <v>       0.10257962       0.09360558       0.44961146 </v>
   <v>      -0.22136714      -0.13970776       0.36463755 </v>
   <v>       0.01575098       0.15073570       0.36902258 </v>
   <v>       0.00280651      -0.28206856       0.19983394 </v>
   <v>       0.00669025       0.09444873      -0.39606536 </v>
   <v>       0.15652459      -0.15147193       0.15458923 </v>
   <v>      -0.09452471      -0.29403153      -0.40252959 </v>
   <v>       0.28220482       0.03009407       0.35092155 </v>
   <v>       0.26145426      -0.10700385       0.22071689 </v>
   <v>      -0.25932717      -0.04534372       0.45011852 </v>
   <v>       0.23465521      -0.07721064      -0.36838190 </v>
   <v>      -0.03717673      -0.21435143      -0.30442473 </v>
   <v>      -0.06385582      -0.41093530       0.46307546 </v>
   <v>      -0.09682454       0.01054571       0.14041781 </v>
   <v>      -0.23786515      -0.09972669       0.22168844 </v>
   <v>       0.33712819      -0.23720472       0.37760556 </v>
   <v>       0.14912753      -0.42327257       0.36727382 </v>
   <v>       0.13802272      -0.28424031       0.12669542 </v>
   <v>      -0.03489469      -0.40716190       0.23295116 </v>
   <v>      -0.11512824      -0.25371401       0.11387246 </v>
   <v>      -0.06252385       0.22939872       0.47042585 </v>
   <v>       0.29048425      -0.36337727       0.34488289 </v>
   <v>       0.04447378      -0.05559543      -0.22809500 </v>
   <v>      -0.32315677      -0.22876881       0.39767000 </v>
   <v>       0.03486662       0.24184988       0.28777101 </v>
   <v>       0.16351595      -0.00534138       0.07465285 </v>
   <v>       0.17717931       0.09122940      -0.30952175 </v>
   <v>      -0.28261141      -0.08068366      -0.36013329 </v>
   <v>       0.07977288      -0.26529482      -0.23396124 </v>
   <v>      -0.25536236       0.15011037       0.36700023 </v>
   <v>      -0.14443798      -0.15868089      -0.24264059 </v>
   <v>       0.39399327       0.02556006       0.48468682 </v>
   <v>      -0.24416878      -0.22331743       0.13509897 </v>
   <v>       0.17973658      -0.48314431      -0.48759253 </v>
   <v>       0.38539087      -0.29407890      -0.48538693 </v>
   <v>      -0.15300559       0.09075918      -0.27845425 </v>
   <v>       0.25233960       0.20340538       0.24823786 </v>
   <v>       0.44246902      -0.14363729       0.32965775 </v>
   <v>       0.12625248      -0.43592422      -0.33575988 </v>
   <v>      -0.27916369      -0.39797193      -0.47956400 </v>
   <v>      -0.24086871      -0.46421851       0.33868605 </v>
   <v>       0.01995260      -0.13971303      -0.03793072 </v>
   <v>       0.13450452       0.05563331      -0.18517075 </v>
   <v>      -0.06726784      -0.08524116      -0.14879013 </v>
   <v>      -0.33840006      -0.37673356       0.37628773 </v>
   <v>       0.14517688       0.47804905       0.24784195 </v>
   <v>       0.12752394       0.20399901       0.09932612 </v>
   <v>       0.29086126       0.24604912      -0.48397194 </v>
   <v>      -0.26487504       0.13605650       0.16471850 </v>
   <v>       0.38262366       0.14986192      -0.45378765 </v>
   <v>       0.06319206       0.29531707      -0.37183107 </v>
   <v>       0.39190644      -0.18568797      -0.30545916 </v>
   <v>      -0.33669919      -0.29931656       0.18753274 </v>
   <v>      -0.07324791       0.20585013       0.08242985 </v>
   <v>      -0.08555028       0.47622664      -0.39255099 </v>
   <v>       0.02822535       0.41501780       0.41330238 </v>
   <v>      -0.28723614       0.21035043      -0.45377494 </v>
   <v>       0.20983271       0.32196952       0.36250481 </v>
   <v>      -0.14643232      -0.39531013      -0.24835219 </v>
   <v>      -0.40162431       0.04992556       0.26590942 </v>
   <v>       0.27735812      -0.04905746      -0.00814632 </v>
   <v>       0.22107337      -0.19711896      -0.03453823 </v>
   <v>      -0.24839450       0.18802540      -0.31956814 </v>
   <v>      -0.45743126      -0.04206671       0.42056381 </v>
   <v>      -0.00228200       0.36696257      -0.46368413 </v>
   <v>      -0.43067680      -0.16523530      -0.40578382 </v>
   <v>       0.44261453       0.15255536       0.30344920 </v>
   <v>       0.47957901      -0.25255656      -0.38151727 </v>
   <v>       0.09675754      -0.25469308      -0.08215302 </v>
   <v>       0.26955614      -0.01900618      -0.14045489 </v>
   <v>      -0.31641569      -0.16870245       0.02242180 </v>
   <v>      -0.23381612      -0.46423185       0.12530955 </v>
   <v>      -0.05143153       0.40554973       0.21856388 </v>
   <v>      -0.16374535      -0.03317543      -0.07417146 </v>
   <v>       0.40700159      -0.47577331       0.48965159 </v>
   <v>       0.02268246      -0.37746786      -0.04965951 </v>
   <v>       0.22046889       0.27826468      -0.28119390 </v>
   <v>       0.21140685      -0.48280818       0.06800226 </v>
   <v>       0.25756958      -0.42963287      -0.22153517 </v>
   <v>      -0.20307879       0.25938604       0.10254850 </v>
   <v>       0.39564208      -0.08661799       0.01775405 </v>
   <v>       0.40543798       0.14270906      -0.29932223 </v>
   <v>       0.39151696       0.23474116       0.20659212 </v>
   <v>      -0.49367786      -0.20040916       0.16184272 </v>
   <v>      -0.39500766       0.13128013       0.14499486 </v>
   <v>       0.38999754      -0.41304051       0.10305027 </v>
   <v>      -0.36562653       0.12786625      -0.27362834 </v>
   <v>       0.10776066       0.15932203      -0.10315503 </v>
   <v>       0.31758554       0.16641520       0.01398006 </v>
   <v>       0.34492577      -0.28154618      -0.15241374 </v>
   <v>      -0.21689178       0.36068353       0.20171896 </v>
   <v>      -0.38252692      -0.45573628      -0.38201264 </v>
   <v>      -0.47844322      -0.40989431       0.36417721 </v>
   <v>      -0.25959937       0.38891254       0.47960087 </v>
   <v>      -0.20685394       0.30132009      -0.25969999 </v>
   <v>       0.49066629       0.22623954      -0.47913123 </v>
   <v>      -0.49830434      -0.37480353      -0.35379159 </v>
   <v>      -0.40062794      -0.11020852      -0.18732647 </v>
   <v>      -0.28783707      -0.33767511      -0.14382893 </v>
   <v>      -0.04683380       0.45629778      -0.19018646 </v>
   <v>      -0.12552728       0.47258045       0.01441568 </v>
   <v>       0.37885184       0.35769448       0.32258153 </v>
   <v>       0.47213613       0.28168208       0.38733017 </v>
   <v>      -0.39136443       0.30638566       0.36671833 </v>
   <v>      -0.07384911       0.26955567      -0.13019683 </v>
   <v>       0.46333002      -0.00985217      -0.17345883 </v>
   <v>      -0.01619455       0.47888439      -0.04680364 </v>
   <v>      -0.32881631      -0.49997032      -0.26977887 </v>
   <v>      -0.42717532       0.07618857       0.04054412 </v>
   <v>      -0.28281133       0.10033116      -0.09107761 </v>
   <v>       0.07444955       0.37718849       0.00671316 </v>
   <v>      -0.36409231      -0.22100498      -0.09553502 </v>
   <v>       0.33770201       0.36539602       0.10843885 </v>
   <v>       0.49197205      -0.25466128      -0.01667623 </v>
   <v>       0.38233746       0.41817583      -0.30560627 </v>
   <v>      -0.42032602       0.43375853      -0.44640219 </v>
   <v>      -0.47832429       0.26219308       0.17341731 </v>
   <v>      -0.28952114       0.28607696      -0.01262334 </v>
   <v>       0.35328902       0.46135415      -0.18849373 </v>
   <v>       0.35280976       0.29432725      -0.01849264 </v>
   <v>      -0.48081216       0.45592330       0.23329534 </v>
   <v>      -0.40108316       0.49540120       0.05238778 </v>
   <v>      -0.49955761      -0.41642480       0.01346175 </v>
   <v>       0.28437081       0.35239671      -0.12449132 </v>
   <v>      -0.46684075       0.28689879      -0.27731902 </v>
   <v>       0.44437265      -0.45332740      -0.11685377 </v>
   <v>      -0.30594712       0.44616353      -0.10630539 </v>
   <v>       0.49078026       0.33238994      -0.08092241 </v>
  </varray>
 </structure>
 <varray name="primitive_index" >
  <v type="int" >        1 </v>
  <v type="int" >      132 </v>
  <v type="int" >       78 </v>
  <v type="int" >       75 </v>
  <v type="int" >       61 </v>
  <v type="int" >       89 </v>
  <v type="int" >       87 </v>
  <v type="int" >       95 </v>
  <v type="int" >       48 </v>
  <v type="int" >       52 </v>
  <v type="int" >       32 </v>
  <v type="int" >        9 </v>
  <v type="int" >       46 </v>
  <v type="int" >       59 </v>
  <v type="int" >       19 </v>
  <v type="int" >      123 </v>
  <v type="int" >       60 </v>
  <v type="int" >        4 </v>
  <v type="int" >       41 </v>
  <v type="int" >       17 </v>
  <v type="int" >       12 </v>
  <v type="int" >       88 </v>
  <v type="int" >       36 </v>
  <v type="int" >       50 </v>
  <v type="int" >       97 </v>
  <v type="int" >      109 </v>
  <v type="int" >      130 </v>
  <v type="int" >      131 </v>
  <v type="int" >      122 </v>
  <v type="int" >      118 </v>
  <v type="int" >       74 </v>
  <v type="int" >       76 </v>
  <v type="int" >      112 </v>
  <v type="int" >       91 </v>
  <v type="int" >       13 </v>
  <v type="int" >       70 </v>
  <v type="int" >       24 </v>
  <v type="int" >      134 </v>
  <v type="int" >       71 </v>
  <v type="int" >       28 </v>
  <v type="int" >      127 </v>
  <v type="int" >       68 </v>
  <v type="int" >       82 </v>
  <v type="int" >      108 </v>
  <v type="int" >      129 </v>
  <v type="int" >       26 </v>
  <v type="int" >      124 </v>
  <v type="int" >      106 </v>
  <v type="int" >      126 </v>
  <v type="int" >       51 </v>
  <v type="int" >       39 </v>
  <v type="int" >       40 </v>
  <v type="int" >       69 </v>
  <v type="int" >       27 </v>
  <v type="int" >      121 </v>
  <v type="int" >      102 </v>
  <v type="int" >       43 </v>
  <v type="int" >       56 </v>
  <v type="int" >       83 </v>
  <v type="int" >       67 </v>
  <v type="int" >       63 </v>
  <v type="int" >       96 </v>
  <v type="int" >       85 </v>
  <v type="int" >      113 </v>
  <v type="int" >       16 </v>
  <v type="int" >        6 </v>
  <v type="int" >       72 </v>
  <v type="int" >       33 </v>
  <v type="int" >       57 </v>
  <v type="int" >       34 </v>
  <v type="int" >       18 </v>
  <v type="int" >       37 </v>
  <v type="int" >      125 </v>
  <v type="int" >       79 </v>
  <v type="int" >       54 </v>
  <v type="int" >       38 </v>
  <v type="int" >      117 </v>
  <v type="int" >       65 </v>
  <v type="int" >        7 </v>
  <v type="int" >       25 </v>
  <v type="int" >      135 </v>
  <v type="int" >       21 </v>
  <v type="int" >       80 </v>
  <v type="int" >        8 </v>
  <v type="int" >       11 </v>
  <v type="int" >       58 </v>
  <v type="int" >       44 </v>
  <v type="int" >       81 </v>
  <v type="int" >      133 </v>
  <v type="int" >       35 </v>
  <v type="int" >       23 </v>
  <v type="int" >       47 </v>
  <v type="int" >      120 </v>
  <v type="int" >      103 </v>
  <v type="int" >      105 </v>
  <v type="int" >      100 </v>
  <v type="int" >       10 </v>
  <v type="int" >       86 </v>
  <v type="int" >       29 </v>
  <v type="int" >       73 </v>
  <v type="int" >        3 </v>
  <v type="int" >       62 </v>
  <v type="int" >       93 </v>
  <v type="int" >       55 </v>
  <v type="int" >      107 </v>
  <v type="int" >       98 </v>
  <v type="int" >      110 </v>
  <v type="int" >      104 </v>
  <v type="int" >      114 </v>
  <v type="int" >       31 </v>
  <v type="int" >       64 </v>
  <v type="int" >       14 </v>
  <v type="int" >       22 </v>
  <v type="int" >       45 </v>
  <v type="int" >      115 </v>
  <v type="int" >       99 </v>
  <v type="int" >        5 </v>
  <v type="int" >      111 </v>
  <v type="int" >       49 </v>
  <v type="int" >      101 </v>
  <v type="int" >       66 </v>
  <v type="int" >       77 </v>
  <v type="int" >       90 </v>
  <v type="int" >       94 </v>
  <v type="int" >      116 </v>
  <v type="int" >       30 </v>
  <v type="int" >       53 </v>
  <v type="int" >       20 </v>
  <v type="int" >       92 </v>
  <v type="int" >       42 </v>
  <v type="int" >      119 </v>
  <v type="int" >       15 </v>
  <v type="int" >       84 </v>
  <v type="int" >        2 </v>
  <v type="int" >      128 </v>
 </varray>
 <kpoints>
  <generation param="Gamma">
   <v type="int" name="divisions">       2        2        2 </v>
   <v name="usershift">      0.00000000       0.00000000       0.00000000 </v>
   <v name="genvec1">      0.50000000       0.00000000       0.00000000 </v>
   <v name="genvec2">      0.00000000       0.50000000       0.00000000 </v>
   <v name="genvec3">      0.00000000       0.00000000       0.50000000 </v>
   <v name="shift">      0.00000000       0.00000000       0.00000000 </v>
  </generation>
  <varray name="kpointlist" >
   <v>       0.00000000       0.00000000       0.00000000 </v>
   <v>       0.50000000       0.00000000       0.00000000 </v>
   <v>       0.00000000       0.50000000       0.00000000 </v>
   <v>       0.50000000       0.50000000       0.00000000 </v>
   <v>       0.00000000       0.00000000       0.50000000 </v>
   <v>       0.50000000       0.00000000       0.50000000 </v>
   <v>       0.00000000       0.50000000       0.50000000 </v>
   <v>       0.50000000       0.50000000       0.50000000 </v>
  </varray>
  <varray name="weights" >
   <v>       0.12500000 </v>
   <v>       0.12500000 </v>
   <v>       0.12500000 </v>
   <v>       0.12500000 </v>
   <v>       0.12500000 </v>
   <v>       0.12500000 </v>
   <v>       0.12500000 </v>
   <v>       0.12500000 </v>
  </varray>
 </kpoints>
 <parameters>
  <separator name="general" >
   <i type="string" name="SYSTEM">unknown system</i>
   <i type="logical" name="LCOMPAT"> F  </i>
  </separator>
  <separator name="electronic" >
   <i type="string" name="PREC">a</i>
   <i name="ENMAX">    600.00000000</i>
   <i name="ENAUG">    605.39200000</i>
   <i name="EDIFF">      0.00000100</i>
   <i type="int" name="IALGO">    38</i>
   <i type="int" name="IWAVPR">    10</i>
   <i type="int" name="NBANDS">   520</i>
   <i name="NELECT">    864.00000000</i>
   <i type="int" name="TURBO">     0</i>
   <i type="int" name="IRESTART">     0</i>
   <i type="int" name="NREBOOT">     0</i>
   <i type="int" name="NMIN">     0</i>
   <i name="EREF">      0.00000000</i>
   <separator name="electronic smearing" >
    <i type="int" name="ISMEAR">     0</i>
    <i name="SIGMA">      0.05000000</i>
    <i name="KSPACING">      0.30000000</i>
    <i type="logical" name="KGAMMA"> T  </i>
   </separator>
   <separator name="electronic projectors" >
    <i type="logical" name="LREAL"> T  </i>
    <v name="ROPT">     -0.00025000     -0.00025000     -0.00025000</v>
    <i type="int" name="LMAXPAW">  -100</i>
    <i type="int" name="LMAXMIX">     2</i>
    <i type="logical" name="NLSPLINE"> F  </i>
   </separator>
   <separator name="electronic startup" >
    <i type="int" name="ISTART">     0</i>
    <i type="int" name="ICHARG">     2</i>
    <i type="int" name="INIWAV">     1</i>
   </separator>
   <separator name="electronic spin" >
    <i type="int" name="ISPIN">     1</i>
    <i type="logical" name="LNONCOLLINEAR"> F  </i>
    <v name="MAGMOM">      1.00000000      1.00000000      1.00000000      1.00000000      1.00000000      1.00000000      1.00000000      1.00000000      1.00000000      1.00000000      1.00000000      1.00000000      1.00000000      1.00000000      1.00000000      1.00000000      1.00000000      1.00000000      1.00000000      1.00000000
      1.00000000      1.00000000      1.00000000      1.00000000      1.00000000      1.00000000      1.00000000      1.00000000      1.00000000      1.00000000      1.00000000      1.00000000      1.00000000      1.00000000      1.00000000      1.00000000      1.00000000      1.00000000      1.00000000      1.00000000
      1.00000000      1.00000000      1.00000000      1.00000000      1.00000000      1.00000000      1.00000000      1.00000000      1.00000000      1.00000000      1.00000000      1.00000000      1.00000000      1.00000000      1.00000000      1.00000000      1.00000000      1.00000000      1.00000000      1.00000000
      1.00000000      1.00000000      1.00000000      1.00000000      1.00000000      1.00000000      1.00000000      1.00000000      1.00000000      1.00000000      1.00000000      1.00000000      1.00000000      1.00000000      1.00000000      1.00000000      1.00000000      1.00000000      1.00000000      1.00000000
      1.00000000      1.00000000      1.00000000      1.00000000      1.00000000      1.00000000      1.00000000      1.00000000      1.00000000      1.00000000      1.00000000      1.00000000      1.00000000      1.00000000      1.00000000      1.00000000      1.00000000      1.00000000      1.00000000      1.00000000
      1.00000000      1.00000000      1.00000000      1.00000000      1.00000000      1.00000000      1.00000000      1.00000000      1.00000000      1.00000000      1.00000000      1.00000000      1.00000000      1.00000000      1.00000000      1.00000000      1.00000000      1.00000000      1.00000000      1.00000000
      1.00000000      1.00000000      1.00000000      1.00000000      1.00000000      1.00000000      1.00000000      1.00000000      1.00000000      1.00000000      1.00000000      1.00000000      1.00000000      1.00000000      1.00000000</v>
    <i name="NUPDOWN">     -1.00000000</i>
    <i type="logical" name="LSORBIT"> F  </i>
    <v name="SAXIS">      0.00000000      0.00000000      1.00000000</v>
    <i type="logical" name="LSPIRAL"> F  </i>
    <v name="QSPIRAL">      0.00000000      0.00000000      0.00000000</v>
    <i type="logical" name="LZEROZ"> F  </i>
   </separator>
   <separator name="electronic exchange-correlation" >
    <i type="logical" name="LASPH"> F  </i>
    <i type="logical" name="LMETAGGA"> F  </i>
   </separator>
   <separator name="electronic convergence" >
    <i type="int" name="NELM">    60</i>
    <i type="int" name="NELMDL">    -5</i>
    <i type="int" name="NELMIN">     2</i>
    <i name="ENINI">    600.00000000</i>
    <separator name="electronic convergence detail" >
     <i type="logical" name="LDIAG"> T  </i>
     <i type="logical" name="LSUBROT"> F  </i>
     <i name="WEIMIN">      0.00000000</i>
     <i name="EBREAK">      0.00000000</i>
     <i name="DEPER">      0.30000000</i>
     <i type="int" name="NRMM">     4</i>
     <i name="TIME">      0.40000000</i>
    </separator>
   </separator>
   <separator name="electronic mixer" >
    <i name="AMIX">      0.40000000</i>
    <i name="BMIX">      1.00000000</i>
    <i name="AMIN">      0.10000000</i>
    <i name="AMIX_MAG">      1.60000000</i>
    <i name="BMIX_MAG">      1.00000000</i>
    <separator name="electronic mixer details" >
     <i type="int" name="IMIX">     4</i>
     <i type="logical" name="MIXFIRST"> F  </i>
     <i type="int" name="MAXMIX">   -45</i>
     <i name="WC">    100.00000000</i>
     <i type="int" name="INIMIX">     1</i>
     <i type="int" name="MIXPRE">     1</i>
     <i type="int" name="MREMOVE">     5</i>
    </separator>
   </separator>
   <separator name="electronic dipolcorrection" >
    <i type="logical" name="LDIPOL"> F  </i>
    <i type="logical" name="LMONO"> F  </i>
    <i type="int" name="IDIPOL">     0</i>
    <i name="EPSILON">      1.00000000</i>
    <v name="DIPOL">   -100.00000000   -100.00000000   -100.00000000</v>
    <i name="EFIELD">      0.00000000</i>
   </separator>
  </separator>
  <separator name="grids" >
   <i type="int" name="NGX">    96</i>
   <i type="int" name="NGY">    96</i>
   <i type="int" name="NGZ">    96</i>
   <i type="int" name="NGXF">   192</i>
   <i type="int" name="NGYF">   192</i>
   <i type="int" name="NGZF">   192</i>
   <i type="logical" name="ADDGRID"> T  </i>
  </separator>
  <separator name="ionic" >
   <i type="int" name="NSW">     1</i>
   <i type="int" name="IBRION">    -1</i>
   <i type="int" name="MDALGO">     0</i>
   <i type="int" name="ISIF">     2</i>
   <i name="PSTRESS">      0.00000000</i>
   <i name="EDIFFG">     -0.01000000</i>
   <i type="int" name="NFREE">     0</i>
   <i name="POTIM">      1.00000000</i>
   <i name="SMASS">     -3.00000000</i>
   <i name="SCALEE">      1.00000000</i>
  </separator>
  <separator name="ionic md" >
   <i name="TEBEG">      0.00010000</i>
   <i name="TEEND">      0.00010000</i>
   <i type="int" name="NBLOCK">     1</i>
   <i type="int" name="KBLOCK">     1</i>
   <i type="int" name="NPACO">   256</i>
   <i name="APACO">     16.00000000</i>
  </separator>
  <separator name="symmetry" >
   <i type="int" name="ISYM">     0</i>
   <i name="SYMPREC">      0.00001000</i>
  </separator>
  <separator name="dos" >
   <i type="int" name="LORBIT">     0</i>
   <v name="RWIGS">     -1.00000000     -1.00000000     -1.00000000</v>
   <i type="int" name="NEDOS">   301</i>
   <i name="EMIN">     10.00000000</i>
   <i name="EMAX">    -10.00000000</i>
   <i name="EFERMI">      0.00000000</i>
  </separator>
  <separator name="writing" >
   <i type="int" name="NWRITE">     2</i>
   <i type="logical" name="LWAVE"> F  </i>
   <i type="logical" name="LDOWNSAMPLE"> F  </i>
   <i type="logical" name="LCHARG"> F  </i>
   <i type="logical" name="LPARD"> F  </i>
   <i type="logical" name="LVTOT"> F  </i>
   <i type="logical" name="LVHAR"> F  </i>
   <i type="logical" name="LELF"> F  </i>
   <i type="logical" name="LOPTICS"> F  </i>
   <v name="STM">      0.00000000      0.00000000      0.00000000      0.00000000      0.00000000      0.00000000      0.00000000</v>
  </separator>
  <separator name="performance" >
   <i type="int" name="NPAR">     4</i>
   <i type="int" name="NSIM">     4</i>
   <i type="int" name="NBLK">    -1</i>
   <i type="logical" name="LPLANE"> T  </i>
   <i type="logical" name="LSCALAPACK"> F  </i>
   <i type="logical" name="LSCAAWARE"> F  </i>
   <i type="logical" name="LSCALU"> F  </i>
   <i type="logical" name="LASYNC"> F  </i>
   <i type="logical" name="LORBITALREAL"> F  </i>
  </separator>
  <separator name="miscellaneous" >
   <i type="int" name="IDIOT">     3</i>
   <i type="int" name="ISPECIAL">     0</i>
   <i type="logical" name="LMUSIC"> F  </i>
   <v name="POMASS">     40.07800000     28.08500000     16.00000000</v>
   <v name="DARWINR">      0.00000000      0.00000000      0.00000000</v>
   <v name="DARWINV">      1.00000000      1.00000000      1.00000000</v>
   <i type="logical" name="LCORR"> T  </i>
  </separator>
  <i type="logical" name="GGA_COMPAT"> T  </i>
  <i type="logical" name="LBERRY"> F  </i>
  <i type="int" name="ICORELEVEL">     0</i>
  <i type="logical" name="LDAU"> F  </i>
  <i type="int" name="I_CONSTRAINED_M">     0</i>
  <separator name="electronic exchange-correlation" >
   <i type="string" name="GGA">--</i>
   <i type="int" name="VOSKOWN">     0</i>
   <i type="logical" name="LHFCALC"> F  </i>
   <i type="string" name="PRECFOCK"></i>
   <i type="logical" name="LSYMGRAD"> F  </i>
   <i type="logical" name="LHFONE"> F  </i>
   <i type="logical" name="LRHFCALC"> F  </i>
   <i type="logical" name="LTHOMAS"> F  </i>
   <i type="logical" name="LMODELHF"> F  </i>
   <i name="ENCUT4O">     -1.00000000</i>
   <i type="int" name="EXXOEP">     0</i>
   <i type="int" name="FOURORBIT">     0</i>
   <i name="AEXX">      0.00000000</i>
   <i name="HFALPHA">      0.00000000</i>
   <i name="MCALPHA">      0.00000000</i>
   <i name="ALDAX">      1.00000000</i>
   <i name="AGGAX">      1.00000000</i>
   <i name="ALDAC">      1.00000000</i>
   <i name="AGGAC">      1.00000000</i>
   <i type="int" name="NKREDX">     1</i>
   <i type="int" name="NKREDY">     1</i>
   <i type="int" name="NKREDZ">     1</i>
   <i type="logical" name="SHIFTRED"> F  </i>
   <i type="logical" name="ODDONLY"> F  </i>
   <i type="logical" name="EVENONLY"> F  </i>
   <i type="int" name="LMAXFOCK">     0</i>
   <i type="int" name="NMAXFOCKAE">     0</i>
   <i type="logical" name="LFOCKAEDFT"> F  </i>
   <i name="HFSCREEN">      0.00000000</i>
   <i name="HFSCREENC">      0.00000000</i>
   <i type="int" name="NBANDSGWLOW">     0</i>
  </separator>
  <separator name="vdW DFT" >
   <i type="logical" name="LUSE_VDW"> F  </i>
   <i name="Zab_VDW">     -0.84910000</i>
   <i name="PARAM1">      0.12340000</i>
   <i name="PARAM2">      1.00000000</i>
   <i name="PARAM3">      0.00000000</i>
  </separator>
  <separator name="model GW" >
   <i type="int" name="MODEL_GW">     0</i>
   <i name="MODEL_EPS0">      6.98798513</i>
   <i name="MODEL_ALPHA">      1.00000000</i>
  </separator>
  <separator name="linear response parameters" >
   <i type="logical" name="LEPSILON"> F  </i>
   <i type="logical" name="LRPA"> F  </i>
   <i type="logical" name="LNABLA"> F  </i>
   <i type="logical" name="LVEL"> F  </i>
   <i type="int" name="KINTER">     0</i>
   <i name="CSHIFT">      0.10000000</i>
   <i name="OMEGAMAX">     -1.00000000</i>
   <i name="DEG_THRESHOLD">      0.00200000</i>
   <i name="RTIME">     -0.10000000</i>
   <i name="WPLASMAI">      0.00000000</i>
   <v name="DFIELD">      0.00000000      0.00000000      0.00000000</v>
   <v name="WPLASMA">      0.00000000      0.00000000      0.00000000      0.00000000      0.00000000      0.00000000      0.00000000      0.00000000      0.00000000</v>
  </separator>
  <separator name="orbital magnetization" >
   <i type="logical" name="NUCIND"> F  </i>
   <v name="MAGPOS">      0.00000000      0.00000000      0.00000000</v>
   <i type="logical" name="LNICSALL"> T  </i>
   <i type="logical" name="ORBITALMAG"> F  </i>
   <i type="logical" name="LMAGBLOCH"> F  </i>
   <i type="logical" name="LCHIMAG"> F  </i>
   <i type="logical" name="LGAUGE"> T  </i>
   <i type="int" name="MAGATOM">     0</i>
   <v name="MAGDIPOL">      0.00000000      0.00000000      0.00000000</v>
   <v name="AVECCONST">      0.00000000      0.00000000      0.00000000</v>
  </separator>
  <separator name="response functions" >
   <i type="logical" name="LADDER"> F  </i>
   <i type="logical" name="LRPAFORCE"> F  </i>
   <i type="logical" name="LFXC"> F  </i>
   <i type="logical" name="LHARTREE"> T  </i>
   <i type="int" name="IBSE">     0</i>
   <v type="int" name="KPOINT">    -1     0     0     0</v>
   <i type="logical" name="LTCTE"> F  </i>
   <i type="logical" name="LTETE"> F  </i>
   <i type="logical" name="LTRIPLET"> F  </i>
   <i type="logical" name="LFXCEPS"> F  </i>
   <i type="logical" name="LFXHEG"> F  </i>
   <i type="int" name="NATURALO">     2</i>
   <i type="logical" name="L2ORDER"> F  </i>
   <i type="logical" name="LMP2LT"> F  </i>
   <i type="logical" name="LUSEW"> F  </i>
   <i name="ENCUTGW">     -2.00000000</i>
   <i name="ENCUTGWSOFT">     -2.00000000</i>
   <i name="ENCUTLF">     -1.00000000</i>
   <i type="int" name="LMAXMP2">    -1</i>
   <i name="SCISSOR">      0.00000000</i>
   <i type="int" name="NOMEGA">     0</i>
   <i type="int" name="NOMEGAR">     0</i>
   <i type="int" name="NBANDSGW">    -1</i>
   <i type="int" name="NBANDSO">    -1</i>
   <i type="int" name="NBANDSV">    -1</i>
   <i type="int" name="NELM">     1</i>
   <i type="int" name="NELMHF">     1</i>
   <i type="int" name="DIM">     3</i>
   <i type="int" name="ANTIRES">     0</i>
   <i name="OMEGAMAX">    -30.00000000</i>
   <i name="OMEGAMIN">    -30.00000000</i>
   <i name="OMEGATL">   -200.00000000</i>
   <i type="int" name="OMEGAGRID">   140</i>
   <i name="CSHIFT">     -0.10000000</i>
   <i type="logical" name="SELFENERGY"> F  </i>
   <i type="logical" name="LSPECTRAL"> F  </i>
   <i type="logical" name="LSPECTRALGW"> F  </i>
   <i type="logical" name="LSINGLES"> F  </i>
   <i type="logical" name="LFERMIGW"> F  </i>
   <i type="logical" name="ODDONLYGW"> F  </i>
   <i type="logical" name="EVENONLYGW"> F  </i>
   <i type="int" name="NKREDLFX">     1</i>
   <i type="int" name="NKREDLFY">     1</i>
   <i type="int" name="NKREDLFZ">     1</i>
   <i type="int" name="MAXMEM">  2800</i>
   <i type="int" name="TELESCOPE">     0</i>
   <i type="int" name="TAUPAR">     1</i>
   <i type="int" name="OMEGAPAR">    -1</i>
   <i name="LAMBDA">      1.00000000</i>
  </separator>
  <separator name="External order field" >
   <i name="OFIELD_KAPPA">      0.00000000</i>
   <v name="OFIELD_K">      0.00000000      0.00000000      0.00000000</v>
   <i name="OFIELD_Q6_NEAR">      0.00000000</i>
   <i name="OFIELD_Q6_FAR">      0.00000000</i>
   <i name="OFIELD_A">      0.00000000</i>
  </separator>
 </parameters>
 <atominfo>
  <atoms>     135 </atoms>
  <types>       3 </types>
  <array name="atoms" >
   <dimension dim="1">ion</dimension>
   <field type="string">element</field>
   <field type="int">atomtype</field>
   <set>
    <rc><c>Ca</c><c>   1</c></rc>
    <rc><c>Ca</c><c>   1</c></rc>
    <rc><c>Ca</c><c>   1</c></rc>
    <rc><c>Ca</c><c>   1</c></rc>
    <rc><c>Ca</c><c>   1</c></rc>
    <rc><c>Ca</c><c>   1</c></rc>
    <rc><c>Ca</c><c>   1</c></rc>
    <rc><c>Ca</c><c>   1</c></rc>
    <rc><c>Ca</c><c>   1</c></rc>
    <rc><c>Ca</c><c>   1</c></rc>
    <rc><c>Ca</c><c>   1</c></rc>
    <rc><c>Ca</c><c>   1</c></rc>
    <rc><c>Ca</c><c>   1</c></rc>
    <rc><c>Ca</c><c>   1</c></rc>
    <rc><c>Ca</c><c>   1</c></rc>
    <rc><c>Ca</c><c>   1</c></rc>
    <rc><c>Ca</c><c>   1</c></rc>
    <rc><c>Ca</c><c>   1</c></rc>
    <rc><c>Ca</c><c>   1</c></rc>
    <rc><c>Ca</c><c>   1</c></rc>
    <rc><c>Ca</c><c>   1</c></rc>
    <rc><c>Ca</c><c>   1</c></rc>
    <rc><c>Ca</c><c>   1</c></rc>
    <rc><c>Ca</c><c>   1</c></rc>
    <rc><c>Ca</c><c>   1</c></rc>
    <rc><c>Ca</c><c>   1</c></rc>
    <rc><c>Ca</c><c>   1</c></rc>
    <rc><c>Si</c><c>   2</c></rc>
    <rc><c>Si</c><c>   2</c></rc>
    <rc><c>Si</c><c>   2</c></rc>
    <rc><c>Si</c><c>   2</c></rc>
    <rc><c>Si</c><c>   2</c></rc>
    <rc><c>Si</c><c>   2</c></rc>
    <rc><c>Si</c><c>   2</c></rc>
    <rc><c>Si</c><c>   2</c></rc>
    <rc><c>Si</c><c>   2</c></rc>
    <rc><c>Si</c><c>   2</c></rc>
    <rc><c>Si</c><c>   2</c></rc>
    <rc><c>Si</c><c>   2</c></rc>
    <rc><c>Si</c><c>   2</c></rc>
    <rc><c>Si</c><c>   2</c></rc>
    <rc><c>Si</c><c>   2</c></rc>
    <rc><c>Si</c><c>   2</c></rc>
    <rc><c>Si</c><c>   2</c></rc>
    <rc><c>Si</c><c>   2</c></rc>
    <rc><c>Si</c><c>   2</c></rc>
    <rc><c>Si</c><c>   2</c></rc>
    <rc><c>Si</c><c>   2</c></rc>
    <rc><c>Si</c><c>   2</c></rc>
    <rc><c>Si</c><c>   2</c></rc>
    <rc><c>Si</c><c>   2</c></rc>
    <rc><c>Si</c><c>   2</c></rc>
    <rc><c>Si</c><c>   2</c></rc>
    <rc><c>Si</c><c>   2</c></rc>
    <rc><c>O </c><c>   3</c></rc>
    <rc><c>O </c><c>   3</c></rc>
    <rc><c>O </c><c>   3</c></rc>
    <rc><c>O </c><c>   3</c></rc>
    <rc><c>O </c><c>   3</c></rc>
    <rc><c>O </c><c>   3</c></rc>
    <rc><c>O </c><c>   3</c></rc>
    <rc><c>O </c><c>   3</c></rc>
    <rc><c>O </c><c>   3</c></rc>
    <rc><c>O </c><c>   3</c></rc>
    <rc><c>O </c><c>   3</c></rc>
    <rc><c>O </c><c>   3</c></rc>
    <rc><c>O </c><c>   3</c></rc>
    <rc><c>O </c><c>   3</c></rc>
    <rc><c>O </c><c>   3</c></rc>
    <rc><c>O </c><c>   3</c></rc>
    <rc><c>O </c><c>   3</c></rc>
    <rc><c>O </c><c>   3</c></rc>
    <rc><c>O </c><c>   3</c></rc>
    <rc><c>O </c><c>   3</c></rc>
    <rc><c>O </c><c>   3</c></rc>
    <rc><c>O </c><c>   3</c></rc>
    <rc><c>O </c><c>   3</c></rc>
    <rc><c>O </c><c>   3</c></rc>
    <rc><c>O </c><c>   3</c></rc>
    <rc><c>O </c><c>   3</c></rc>
    <rc><c>O </c><c>   3</c></rc>
    <rc><c>O </c><c>   3</c></rc>
    <rc><c>O </c><c>   3</c></rc>
    <rc><c>O </c><c>   3</c></rc>
    <rc><c>O </c><c>   3</c></rc>
    <rc><c>O </c><c>   3</c></rc>
    <rc><c>O </c><c>   3</c></rc>
    <rc><c>O </c><c>   3</c></rc>
    <rc><c>O </c><c>   3</c></rc>
    <rc><c>O </c><c>   3</c></rc>
    <rc><c>O </c><c>   3</c></rc>
    <rc><c>O </c><c>   3</c></rc>
    <rc><c>O </c><c>   3</c></rc>
    <rc><c>O </c><c>   3</c></rc>
    <rc><c>O </c><c>   3</c></rc>
    <rc><c>O </c><c>   3</c></rc>
    <rc><c>O </c><c>   3</c></rc>
    <rc><c>O </c><c>   3</c></rc>
    <rc><c>O </c><c>   3</c></rc>
    <rc><c>O </c><c>   3</c></rc>
    <rc><c>O </c><c>   3</c></rc>
    <rc><c>O </c><c>   3</c></rc>
    <rc><c>O </c><c>   3</c></rc>
    <rc><c>O </c><c>   3</c></rc>
    <rc><c>O </c><c>   3</c></rc>
    <rc><c>O </c><c>   3</c></rc>
    <rc><c>O </c><c>   3</c></rc>
    <rc><c>O </c><c>   3</c></rc>
    <rc><c>O </c><c>   3</c></rc>
    <rc><c>O </c><c>   3</c></rc>
    <rc><c>O </c><c>   3</c></rc>
    <rc><c>O </c><c>   3</c></rc>
    <rc><c>O </c><c>   3</c></rc>
    <rc><c>O </c><c>   3</c></rc>
    <rc><c>O </c><c>   3</c></rc>
    <rc><c>O </c><c>   3</c></rc>
    <rc><c>O </c><c>   3</c></rc>
    <rc><c>O </c><c>   3</c></rc>
    <rc><c>O </c><c>   3</c></rc>
    <rc><c>O </c><c>   3</c></rc>
    <rc><c>O </c><c>   3</c></rc>
    <rc><c>O </c><c>   3</c></rc>
    <rc><c>O </c><c>   3</c></rc>
    <rc><c>O </c><c>   3</c></rc>
    <rc><c>O </c><c>   3</c></rc>
    <rc><c>O </c><c>   3</c></rc>
    <rc><c>O </c><c>   3</c></rc>
    <rc><c>O </c><c>   3</c></rc>
    <rc><c>O </c><c>   3</c></rc>
    <rc><c>O </c><c>   3</c></rc>
    <rc><c>O </c><c>   3</c></rc>
    <rc><c>O </c><c>   3</c></rc>
    <rc><c>O </c><c>   3</c></rc>
    <rc><c>O </c><c>   3</c></rc>
    <rc><c>O </c><c>   3</c></rc>
   </set>
  </array>
  <array name="atomtypes" >
   <dimension dim="1">type</dimension>
   <field type="int">atomspertype</field>
   <field type="string">element</field>
   <field>mass</field>
   <field>valence</field>
   <field type="string">pseudopotential</field>
   <set>
    <rc><c>  27</c><c>Ca</c><c>     40.07800000</c><c>     10.00000000</c><c>  PAW_PBE Ca_sv 06Sep2000               </c></rc>
    <rc><c>  27</c><c>Si</c><c>     28.08500000</c><c>      4.00000000</c><c>  PAW_PBE Si 05Jan2001                  </c></rc>
    <rc><c>  81</c><c>O </c><c>     16.00000000</c><c>      6.00000000</c><c>  PAW_PBE O 08Apr2002                   </c></rc>
   </set>
  </array>
 </atominfo>
 <structure name="initialpos" >
  <crystal>
   <varray name="basis" >
    <v>      11.62817333       0.00000000       0.00000000 </v>
    <v>       0.00000000      11.62817333       0.00000000 </v>
    <v>       0.00000000       0.00000000      11.62817333 </v>
   </varray>
   <i name="volume">   1572.29665425 </i>
   <varray name="rec_basis" >
    <v>       0.08599803       0.00000000       0.00000000 </v>
    <v>       0.00000000       0.08599803       0.00000000 </v>
    <v>       0.00000000       0.00000000       0.08599803 </v>
   </varray>
  </crystal>
  <varray name="positions" >
   <v>       0.02989138       0.88612370       0.41011523 </v>
   <v>       0.69405288       0.44616353       0.89369461 </v>
   <v>       0.74040063       0.38891254       0.47960087 </v>
   <v>       0.23465521       0.92278936       0.63161810 </v>
   <v>       0.71718867       0.10033116       0.90892239 </v>
   <v>       0.85356768       0.60468987       0.75164781 </v>
   <v>       0.76618388       0.53576815       0.12530955 </v>
   <v>       0.22046889       0.27826468       0.71880610 </v>
   <v>       0.00669025       0.09444873       0.60393464 </v>
   <v>       0.34492577       0.71845382       0.84758626 </v>
   <v>       0.21140685       0.51719182       0.06800226 </v>
   <v>       0.90317546       0.01054571       0.14041781 </v>
   <v>       0.71738859       0.91931634       0.63986671 </v>
   <v>       0.92615089       0.26955567       0.86980317 </v>
   <v>       0.53315925       0.28689879       0.72268098 </v>
   <v>       0.20983271       0.32196952       0.36250481 </v>
   <v>       0.93614418       0.58906470       0.46307546 </v>
   <v>       0.54256874       0.95793329       0.42056381 </v>
   <v>       0.28220482       0.03009407       0.35092155 </v>
   <v>       0.51918784       0.45592330       0.23329534 </v>
   <v>       0.40700159       0.52422669       0.48965159 </v>
   <v>       0.46333002       0.99014783       0.82654117 </v>
   <v>       0.50632214       0.79959084       0.16184272 </v>
   <v>       0.74463764       0.15011037       0.36700023 </v>
   <v>       0.94856847       0.40554973       0.21856388 </v>
   <v>       0.12625248       0.56407578       0.66424012 </v>
   <v>       0.12752394       0.20399901       0.09932612 </v>
   <v>       0.75583122       0.77668257       0.13509897 </v>
   <v>       0.61747308       0.54426372       0.61798736 </v>
   <v>       0.35328902       0.46135415       0.81150627 </v>
   <v>       0.47213613       0.28168208       0.38733017 </v>
   <v>       0.00280651       0.71793144       0.19983394 </v>
   <v>       0.27735812       0.95094254       0.99185368 </v>
   <v>       0.75160550       0.18802540       0.68043186 </v>
   <v>       0.39151696       0.23474116       0.20659212 </v>
   <v>       0.33712819       0.76279528       0.37760556 </v>
   <v>       0.99771800       0.36696257       0.53631587 </v>
   <v>       0.09675754       0.74530692       0.91784698 </v>
   <v>       0.93273216       0.91475884       0.85120987 </v>
   <v>       0.66159994       0.62326644       0.37628773 </v>
   <v>       0.96282327       0.78564857       0.69557527 </v>
   <v>       0.50044239       0.58357520       0.01346175 </v>
   <v>       0.38262366       0.14986192       0.54621235 </v>
   <v>       0.79692121       0.25938604       0.10254850 </v>
   <v>       0.98380545       0.47888439       0.95319636 </v>
   <v>       0.15652459       0.84852807       0.15458923 </v>
   <v>       0.60499234       0.13128013       0.14499486 </v>
   <v>       0.77863286       0.86029224       0.36463755 </v>
   <v>       0.63590769       0.77899502       0.90446498 </v>
   <v>       0.14912753       0.57672743       0.36727382 </v>
   <v>       0.13450452       0.05563331       0.81482925 </v>
   <v>       0.01575098       0.15073570       0.36902258 </v>
   <v>       0.35280976       0.29432725       0.98150736 </v>
   <v>       0.47957901       0.74744344       0.61848273 </v>
   <v>       0.50169566       0.62519647       0.64620841 </v>
   <v>       0.06319206       0.29531707       0.62816893 </v>
   <v>       0.22107337       0.80288104       0.96546177 </v>
   <v>       0.25756958       0.57036713       0.77846483 </v>
   <v>       0.90547529       0.70596847       0.59747041 </v>
   <v>       0.74067283       0.95465628       0.45011852 </v>
   <v>       0.08315244       0.68505495       0.38129686 </v>
   <v>       0.79314606       0.30132009       0.74030001 </v>
   <v>       0.92675209       0.20585013       0.08242985 </v>
   <v>       0.60863557       0.30638566       0.36671833 </v>
   <v>       0.68358431       0.83129755       0.02242180 </v>
   <v>       0.49197205       0.74533872       0.98332377 </v>
   <v>       0.66330081       0.70068344       0.18753274 </v>
   <v>       0.38539087       0.70592110       0.51461307 </v>
   <v>       0.14517688       0.47804905       0.24784195 </v>
   <v>       0.07977288       0.73470518       0.76603876 </v>
   <v>       0.39399327       0.02556006       0.48468682 </v>
   <v>       0.59837569       0.04992556       0.26590942 </v>
   <v>       0.52155678       0.59010569       0.36417721 </v>
   <v>       0.67684323       0.77123119       0.39767000 </v>
   <v>       0.92734988       0.04658180       0.32508747 </v>
   <v>       0.03486662       0.24184988       0.28777101 </v>
   <v>       0.38233746       0.41817583       0.69439373 </v>
   <v>       0.88676825       0.75900383       0.35964453 </v>
   <v>       0.44261453       0.15255536       0.30344920 </v>
   <v>       0.02268246       0.62253214       0.95034049 </v>
   <v>       0.39564208       0.91338201       0.01775405 </v>
   <v>       0.84699441       0.09075918       0.72154575 </v>
   <v>       0.39190644       0.81431203       0.69454084 </v>
   <v>       0.44437265       0.54667260       0.88314623 </v>
   <v>       0.02822535       0.41501780       0.41330238 </v>
   <v>       0.78310822       0.36068353       0.20171896 </v>
   <v>       0.24668186       0.86732452       0.43124930 </v>
   <v>       0.76213485       0.90027331       0.22168844 </v>
   <v>       0.03587362       0.86617078       0.19589136 </v>
   <v>       0.57967398       0.43375853       0.55359781 </v>
   <v>       0.17717931       0.09122940       0.69047825 </v>
   <v>       0.59891684       0.49540120       0.05238778 </v>
   <v>       0.49066629       0.22623954       0.52086877 </v>
   <v>       0.52167571       0.26219308       0.17341731 </v>
   <v>       0.10257962       0.09360558       0.44961146 </v>
   <v>       0.91444972       0.47622664       0.60744901 </v>
   <v>       0.13802272       0.71575969       0.12669542 </v>
   <v>       0.71216293       0.66232489       0.85617107 </v>
   <v>       0.57282468       0.07618857       0.04054412 </v>
   <v>       0.31758554       0.16641520       0.01398006 </v>
   <v>       0.33770201       0.36539602       0.10843885 </v>
   <v>       0.73512496       0.13605650       0.16471850 </v>
   <v>       0.63437347       0.12786625       0.72637166 </v>
   <v>       0.87447272       0.47258045       0.01441568 </v>
   <v>       0.10776066       0.15932203       0.89684497 </v>
   <v>       0.75913129       0.53578149       0.33868605 </v>
   <v>       0.59937206       0.88979148       0.81267353 </v>
   <v>       0.25233960       0.20340538       0.24823786 </v>
   <v>       0.96510531       0.59283810       0.23295116 </v>
   <v>       0.95316620       0.45629778       0.80981354 </v>
   <v>       0.07444955       0.37718849       0.00671316 </v>
   <v>       0.16351595       0.99465862       0.07465285 </v>
   <v>       0.71276386       0.21035043       0.54622506 </v>
   <v>       0.37885184       0.35769448       0.32258153 </v>
   <v>       0.67118369       0.50002968       0.73022113 </v>
   <v>       0.71047886       0.28607696       0.98737666 </v>
   <v>       0.26955614       0.98099382       0.85954511 </v>
   <v>       0.04447378       0.94440457       0.77190500 </v>
   <v>       0.28437081       0.35239671       0.87550868 </v>
   <v>       0.38999754       0.58695949       0.10305027 </v>
   <v>       0.29086126       0.24604912       0.51602806 </v>
   <v>       0.29048425       0.63662273       0.34488289 </v>
   <v>       0.26145426       0.89299615       0.22071689 </v>
   <v>       0.72083631       0.60202807       0.52043600 </v>
   <v>       0.56932320       0.83476470       0.59421618 </v>
   <v>       0.01995260       0.86028697       0.96206928 </v>
   <v>       0.17973658       0.51685569       0.51240747 </v>
   <v>       0.49078026       0.33238994       0.91907759 </v>
   <v>       0.44246902       0.85636271       0.32965775 </v>
   <v>       0.88487176       0.74628599       0.11387246 </v>
   <v>       0.93747615       0.22939872       0.47042585 </v>
   <v>       0.03128403       0.86156625       0.60451242 </v>
   <v>       0.40543798       0.14270906       0.70067777 </v>
   <v>       0.85556202       0.84131911       0.75735941 </v>
   <v>       0.83625465       0.96682457       0.92582854 </v>
  </varray>
  <varray name="velocities" >
   <v>       0.00000000       0.00000000       0.00000000 </v>
   <v>       0.00000000       0.00000000       0.00000000 </v>
   <v>       0.00000000       0.00000000       0.00000000 </v>
   <v>       0.00000000       0.00000000       0.00000000 </v>
   <v>       0.00000000       0.00000000       0.00000000 </v>
   <v>       0.00000000       0.00000000       0.00000000 </v>
   <v>       0.00000000       0.00000000       0.00000000 </v>
   <v>       0.00000000       0.00000000       0.00000000 </v>
   <v>       0.00000000       0.00000000       0.00000000 </v>
   <v>       0.00000000       0.00000000       0.00000000 </v>
   <v>       0.00000000       0.00000000       0.00000000 </v>
   <v>       0.00000000       0.00000000       0.00000000 </v>
   <v>       0.00000000       0.00000000       0.00000000 </v>
   <v>       0.00000000       0.00000000       0.00000000 </v>
   <v>       0.00000000       0.00000000       0.00000000 </v>
   <v>       0.00000000       0.00000000       0.00000000 </v>
   <v>       0.00000000       0.00000000       0.00000000 </v>
   <v>       0.00000000       0.00000000       0.00000000 </v>
   <v>       0.00000000       0.00000000       0.00000000 </v>
   <v>       0.00000000       0.00000000       0.00000000 </v>
   <v>       0.00000000       0.00000000       0.00000000 </v>
   <v>       0.00000000       0.00000000       0.00000000 </v>
   <v>       0.00000000       0.00000000       0.00000000 </v>
   <v>       0.00000000       0.00000000       0.00000000 </v>
   <v>       0.00000000       0.00000000       0.00000000 </v>
   <v>       0.00000000       0.00000000       0.00000000 </v>
   <v>       0.00000000       0.00000000       0.00000000 </v>
   <v>       0.00000000       0.00000000       0.00000000 </v>
   <v>       0.00000000       0.00000000       0.00000000 </v>
   <v>       0.00000000       0.00000000       0.00000000 </v>
   <v>       0.00000000       0.00000000       0.00000000 </v>
   <v>       0.00000000       0.00000000       0.00000000 </v>
   <v>       0.00000000       0.00000000       0.00000000 </v>
   <v>       0.00000000       0.00000000       0.00000000 </v>
   <v>       0.00000000       0.00000000       0.00000000 </v>
   <v>       0.00000000       0.00000000       0.00000000 </v>
   <v>       0.00000000       0.00000000       0.00000000 </v>
   <v>       0.00000000       0.00000000       0.00000000 </v>
   <v>       0.00000000       0.00000000       0.00000000 </v>
   <v>       0.00000000       0.00000000       0.00000000 </v>
   <v>       0.00000000       0.00000000       0.00000000 </v>
   <v>       0.00000000       0.00000000       0.00000000 </v>
   <v>       0.00000000       0.00000000       0.00000000 </v>
   <v>       0.00000000       0.00000000       0.00000000 </v>
   <v>       0.00000000       0.00000000       0.00000000 </v>
   <v>       0.00000000       0.00000000       0.00000000 </v>
   <v>       0.00000000       0.00000000       0.00000000 </v>
   <v>       0.00000000       0.00000000       0.00000000 </v>
   <v>       0.00000000       0.00000000       0.00000000 </v>
   <v>       0.00000000       0.00000000       0.00000000 </v>
   <v>       0.00000000       0.00000000       0.00000000 </v>
   <v>       0.00000000       0.00000000       0.00000000 </v>
   <v>       0.00000000       0.00000000       0.00000000 </v>
   <v>       0.00000000       0.00000000       0.00000000 </v>
   <v>       0.00000000       0.00000000       0.00000000 </v>
   <v>       0.00000000       0.00000000       0.00000000 </v>
   <v>       0.00000000       0.00000000       0.00000000 </v>
   <v>       0.00000000       0.00000000       0.00000000 </v>
   <v>       0.00000000       0.00000000       0.00000000 </v>
   <v>       0.00000000       0.00000000       0.00000000 </v>
   <v>       0.00000000       0.00000000       0.00000000 </v>
   <v>       0.00000000       0.00000000       0.00000000 </v>
   <v>       0.00000000       0.00000000       0.00000000 </v>
   <v>       0.00000000       0.00000000       0.00000000 </v>
   <v>       0.00000000       0.00000000       0.00000000 </v>
   <v>       0.00000000       0.00000000       0.00000000 </v>
   <v>       0.00000000       0.00000000       0.00000000 </v>
   <v>       0.00000000       0.00000000       0.00000000 </v>
   <v>       0.00000000       0.00000000       0.00000000 </v>
   <v>       0.00000000       0.00000000       0.00000000 </v>
   <v>       0.00000000       0.00000000       0.00000000 </v>
   <v>       0.00000000       0.00000000       0.00000000 </v>
   <v>       0.00000000       0.00000000       0.00000000 </v>
   <v>       0.00000000       0.00000000       0.00000000 </v>
   <v>       0.00000000       0.00000000       0.00000000 </v>
   <v>       0.00000000       0.00000000       0.00000000 </v>
   <v>       0.00000000       0.00000000       0.00000000 </v>
   <v>       0.00000000       0.00000000       0.00000000 </v>
   <v>       0.00000000       0.00000000       0.00000000 </v>
   <v>       0.00000000       0.00000000       0.00000000 </v>
   <v>       0.00000000       0.00000000       0.00000000 </v>
   <v>       0.00000000       0.00000000       0.00000000 </v>
   <v>       0.00000000       0.00000000       0.00000000 </v>
   <v>       0.00000000       0.00000000       0.00000000 </v>
   <v>       0.00000000       0.00000000       0.00000000 </v>
   <v>       0.00000000       0.00000000       0.00000000 </v>
   <v>       0.00000000       0.00000000       0.00000000 </v>
   <v>       0.00000000       0.00000000       0.00000000 </v>
   <v>       0.00000000       0.00000000       0.00000000 </v>
   <v>       0.00000000       0.00000000       0.00000000 </v>
   <v>       0.00000000       0.00000000       0.00000000 </v>
   <v>       0.00000000       0.00000000       0.00000000 </v>
   <v>       0.00000000       0.00000000       0.00000000 </v>
   <v>       0.00000000       0.00000000       0.00000000 </v>
   <v>       0.00000000       0.00000000       0.00000000 </v>
   <v>       0.00000000       0.00000000       0.00000000 </v>
   <v>       0.00000000       0.00000000       0.00000000 </v>
   <v>       0.00000000       0.00000000       0.00000000 </v>
   <v>       0.00000000       0.00000000       0.00000000 </v>
   <v>       0.00000000       0.00000000       0.00000000 </v>
   <v>       0.00000000       0.00000000       0.00000000 </v>
   <v>       0.00000000       0.00000000       0.00000000 </v>
   <v>       0.00000000       0.00000000       0.00000000 </v>
   <v>       0.00000000       0.00000000       0.00000000 </v>
   <v>       0.00000000       0.00000000       0.00000000 </v>
   <v>       0.00000000       0.00000000       0.00000000 </v>
   <v>       0.00000000       0.00000000       0.00000000 </v>
   <v>       0.00000000       0.00000000       0.00000000 </v>
   <v>       0.00000000       0.00000000       0.00000000 </v>
   <v>       0.00000000       0.00000000       0.00000000 </v>
   <v>       0.00000000       0.00000000       0.00000000 </v>
   <v>       0.00000000       0.00000000       0.00000000 </v>
   <v>       0.00000000       0.00000000       0.00000000 </v>
   <v>       0.00000000       0.00000000       0.00000000 </v>
   <v>       0.00000000       0.00000000       0.00000000 </v>
   <v>       0.00000000       0.00000000       0.00000000 </v>
   <v>       0.00000000       0.00000000       0.00000000 </v>
   <v>       0.00000000       0.00000000       0.00000000 </v>
   <v>       0.00000000       0.00000000       0.00000000 </v>
   <v>       0.00000000       0.00000000       0.00000000 </v>
   <v>       0.00000000       0.00000000       0.00000000 </v>
   <v>       0.00000000       0.00000000       0.00000000 </v>
   <v>       0.00000000       0.00000000       0.00000000 </v>
   <v>       0.00000000       0.00000000       0.00000000 </v>
   <v>       0.00000000       0.00000000       0.00000000 </v>
   <v>       0.00000000       0.00000000       0.00000000 </v>
   <v>       0.00000000       0.00000000       0.00000000 </v>
   <v>       0.00000000       0.00000000       0.00000000 </v>
   <v>       0.00000000       0.00000000       0.00000000 </v>
   <v>       0.00000000       0.00000000       0.00000000 </v>
   <v>       0.00000000       0.00000000       0.00000000 </v>
   <v>       0.00000000       0.00000000       0.00000000 </v>
   <v>       0.00000000       0.00000000       0.00000000 </v>
   <v>       0.00000000       0.00000000       0.00000000 </v>
   <v>       0.00000000       0.00000000       0.00000000 </v>
  </varray>
 </structure>
 <calculation>
  <scstep>
   <time name="dav">   33.87   34.03</time>
   <time name="total">   34.29   34.45</time>
   <energy>
    <i name="alphaZ">   3039.22321400 </i>
    <i name="ewald"> -48923.57160629 </i>
    <i name="hartreedc"> -15711.73203376 </i>
    <i name="XCdc">   3194.22992598 </i>
    <i name="pawpsdc">  50594.51003143 </i>
    <i name="pawaedc"> -49994.65612350 </i>
    <i name="eentropy">     -0.03266247 </i>
    <i name="bandstr">   2605.21541543 </i>
    <i name="atom">  64968.54023382 </i>
    <i name="e_fr_energy">   9771.72639464 </i>
    <i name="e_wo_entrp">   9771.75905711 </i>
    <i name="e_0_energy">   9771.74272588 </i>
   </energy>
  </scstep>
  <scstep>
   <time name="dav">   38.03   38.21</time>
   <time name="total">   38.03   38.21</time>
   <energy>
    <i name="e_fr_energy">     32.81696897 </i>
    <i name="e_wo_entrp">     32.81696897 </i>
    <i name="e_0_energy">     32.81696897 </i>
   </energy>
  </scstep>
  <scstep>
   <time name="dav">   39.66   39.89</time>
   <time name="total">   39.66   39.89</time>
   <energy>
    <i name="e_fr_energy">  -1018.49295745 </i>
    <i name="e_wo_entrp">  -1018.49295745 </i>
    <i name="e_0_energy">  -1018.49295745 </i>
   </energy>
  </scstep>
  <scstep>
   <time name="dav">   42.81   43.10</time>
   <time name="total">   42.81   43.10</time>
   <energy>
    <i name="e_fr_energy">  -1068.22599259 </i>
    <i name="e_wo_entrp">  -1068.22599259 </i>
    <i name="e_0_energy">  -1068.22599259 </i>
   </energy>
  </scstep>
  <scstep>
   <time name="dav">   52.70   52.96</time>
   <time name="total">   53.95   54.21</time>
   <energy>
    <i name="e_fr_energy">  -1073.23717966 </i>
    <i name="e_wo_entrp">  -1073.23717966 </i>
    <i name="e_0_energy">  -1073.23717966 </i>
   </energy>
  </scstep>
  <scstep>
   <time name="dav">   38.79   38.97</time>
   <time name="total">   40.44   40.63</time>
   <energy>
    <i name="e_fr_energy">   -930.21454269 </i>
    <i name="e_wo_entrp">   -930.21454269 </i>
    <i name="e_0_energy">   -930.21454269 </i>
   </energy>
  </scstep>
  <scstep>
   <time name="dav">   42.62   42.82</time>
   <time name="total">   44.28   44.49</time>
   <energy>
    <i name="e_fr_energy">   -932.34081810 </i>
    <i name="e_wo_entrp">   -932.34081810 </i>
    <i name="e_0_energy">   -932.34081810 </i>
   </energy>
  </scstep>
  <scstep>
   <time name="dav">   40.23   40.41</time>
   <time name="total">   41.87   42.07</time>
   <energy>
    <i name="e_fr_energy">   -931.29401462 </i>
    <i name="e_wo_entrp">   -931.29401462 </i>
    <i name="e_0_energy">   -931.29401462 </i>
   </energy>
  </scstep>
  <scstep>
   <time name="dav">   39.34   39.55</time>
   <time name="total">   41.00   41.22</time>
   <energy>
    <i name="e_fr_energy">   -930.99633881 </i>
    <i name="e_wo_entrp">   -930.99633881 </i>
    <i name="e_0_energy">   -930.99633881 </i>
   </energy>
  </scstep>
  <scstep>
   <time name="dav">   43.86   44.07</time>
   <time name="total">   45.51   45.74</time>
   <energy>
    <i name="e_fr_energy">   -931.07580508 </i>
    <i name="e_wo_entrp">   -931.07580508 </i>
    <i name="e_0_energy">   -931.07580508 </i>
   </energy>
  </scstep>
  <scstep>
   <time name="dav">   42.73   42.92</time>
   <time name="total">   44.42   44.62</time>
   <energy>
    <i name="e_fr_energy">   -931.07358783 </i>
    <i name="e_wo_entrp">   -931.07358783 </i>
    <i name="e_0_energy">   -931.07358783 </i>
   </energy>
  </scstep>
  <scstep>
   <time name="dav">   39.19   39.38</time>
   <time name="total">   40.84   41.05</time>
   <energy>
    <i name="e_fr_energy">   -931.07486780 </i>
    <i name="e_wo_entrp">   -931.07486780 </i>
    <i name="e_0_energy">   -931.07486780 </i>
   </energy>
  </scstep>
  <scstep>
   <time name="dav">   46.93   47.14</time>
   <time name="total">   48.58   48.81</time>
   <energy>
    <i name="e_fr_energy">   -931.07544106 </i>
    <i name="e_wo_entrp">   -931.07544106 </i>
    <i name="e_0_energy">   -931.07544106 </i>
   </energy>
  </scstep>
  <scstep>
   <time name="dav">   40.71   40.90</time>
   <time name="total">   42.36   42.57</time>
   <energy>
    <i name="e_fr_energy">   -931.07556411 </i>
    <i name="e_wo_entrp">   -931.07556411 </i>
    <i name="e_0_energy">   -931.07556411 </i>
   </energy>
  </scstep>
  <scstep>
   <time name="dav">   41.55   41.74</time>
   <time name="total">   43.20   43.40</time>
   <energy>
    <i name="e_fr_energy">   -931.07548395 </i>
    <i name="e_wo_entrp">   -931.07548395 </i>
    <i name="e_0_energy">   -931.07548395 </i>
   </energy>
  </scstep>
  <scstep>
   <time name="dav">   39.09   39.27</time>
   <time name="total">   40.74   40.93</time>
   <energy>
    <i name="e_fr_energy">   -931.07540076 </i>
    <i name="e_wo_entrp">   -931.07540076 </i>
    <i name="e_0_energy">   -931.07540076 </i>
   </energy>
  </scstep>
  <scstep>
   <time name="dav">   43.55   43.83</time>
   <time name="total">   45.21   45.50</time>
   <energy>
    <i name="e_fr_energy">   -931.07541784 </i>
    <i name="e_wo_entrp">   -931.07541784 </i>
    <i name="e_0_energy">   -931.07541784 </i>
   </energy>
  </scstep>
  <scstep>
   <time name="dav">   39.11   39.28</time>
   <time name="total">   40.79   40.98</time>
   <energy>
    <i name="e_fr_energy">   -931.07541656 </i>
    <i name="e_wo_entrp">   -931.07541656 </i>
    <i name="e_0_energy">   -931.07541656 </i>
   </energy>
  </scstep>
  <scstep>
   <time name="dav">   36.96   37.12</time>
   <time name="total">   38.61   38.79</time>
   <energy>
    <i name="e_fr_energy">   -931.07541542 </i>
    <i name="e_wo_entrp">   -931.07541542 </i>
    <i name="e_0_energy">   -931.07541542 </i>
   </energy>
  </scstep>
  <scstep>
   <time name="dav">   27.40   28.13</time>
   <time name="total">   27.80   28.55</time>
   <energy>
    <i name="alphaZ">   3039.22321400 </i>
    <i name="ewald"> -48923.57160629 </i>
    <i name="hartreedc"> -17213.13966822 </i>
    <i name="XCdc">   3294.84982785 </i>
    <i name="pawpsdc"> 100583.24735271 </i>
    <i name="pawaedc">-100242.62274288 </i>
    <i name="eentropy">     -0.00000000 </i>
    <i name="bandstr">  -6437.60202631 </i>
    <i name="atom">  64968.54023382 </i>
    <i name="e_fr_energy">   -931.07541532 </i>
    <i name="e_wo_entrp">   -931.07541532 </i>
    <i name="e_0_energy">   -931.07541532 </i>
   </energy>
  </scstep>
  <structure>
   <crystal>
    <varray name="basis" >
     <v>      11.62817333       0.00000000       0.00000000 </v>
     <v>       0.00000000      11.62817333       0.00000000 </v>
     <v>       0.00000000       0.00000000      11.62817333 </v>
    </varray>
    <i name="volume">   1572.29665425 </i>
    <varray name="rec_basis" >
     <v>       0.08599803       0.00000000       0.00000000 </v>
     <v>       0.00000000       0.08599803       0.00000000 </v>
     <v>       0.00000000       0.00000000       0.08599803 </v>
    </varray>
   </crystal>
   <varray name="positions" >
    <v>       0.02989138       0.88612370       0.41011523 </v>
    <v>       0.69405288       0.44616353       0.89369461 </v>
    <v>       0.74040063       0.38891254       0.47960087 </v>
    <v>       0.23465521       0.92278936       0.63161810 </v>
    <v>       0.71718867       0.10033116       0.90892239 </v>
    <v>       0.85356768       0.60468987       0.75164781 </v>
    <v>       0.76618388       0.53576815       0.12530955 </v>
    <v>       0.22046889       0.27826468       0.71880610 </v>
    <v>       0.00669025       0.09444873       0.60393464 </v>
    <v>       0.34492577       0.71845382       0.84758626 </v>
    <v>       0.21140685       0.51719182       0.06800226 </v>
    <v>       0.90317546       0.01054571       0.14041781 </v>
    <v>       0.71738859       0.91931634       0.63986671 </v>
    <v>       0.92615089       0.26955567       0.86980317 </v>
    <v>       0.53315925       0.28689879       0.72268098 </v>
    <v>       0.20983271       0.32196952       0.36250481 </v>
    <v>       0.93614418       0.58906470       0.46307546 </v>
    <v>       0.54256874       0.95793329       0.42056381 </v>
    <v>       0.28220482       0.03009407       0.35092155 </v>
    <v>       0.51918784       0.45592330       0.23329534 </v>
    <v>       0.40700159       0.52422669       0.48965159 </v>
    <v>       0.46333002       0.99014783       0.82654117 </v>
    <v>       0.50632214       0.79959084       0.16184272 </v>
    <v>       0.74463764       0.15011037       0.36700023 </v>
    <v>       0.94856847       0.40554973       0.21856388 </v>
    <v>       0.12625248       0.56407578       0.66424012 </v>
    <v>       0.12752394       0.20399901       0.09932612 </v>
    <v>       0.75583122       0.77668257       0.13509897 </v>
    <v>       0.61747308       0.54426372       0.61798736 </v>
    <v>       0.35328902       0.46135415       0.81150627 </v>
    <v>       0.47213613       0.28168208       0.38733017 </v>
    <v>       0.00280651       0.71793144       0.19983394 </v>
    <v>       0.27735812       0.95094254       0.99185368 </v>
    <v>       0.75160550       0.18802540       0.68043186 </v>
    <v>       0.39151696       0.23474116       0.20659212 </v>
    <v>       0.33712819       0.76279528       0.37760556 </v>
    <v>       0.99771800       0.36696257       0.53631587 </v>
    <v>       0.09675754       0.74530692       0.91784698 </v>
    <v>       0.93273216       0.91475884       0.85120987 </v>
    <v>       0.66159994       0.62326644       0.37628773 </v>
    <v>       0.96282327       0.78564857       0.69557527 </v>
    <v>       0.50044239       0.58357520       0.01346175 </v>
    <v>       0.38262366       0.14986192       0.54621235 </v>
    <v>       0.79692121       0.25938604       0.10254850 </v>
    <v>       0.98380545       0.47888439       0.95319636 </v>
    <v>       0.15652459       0.84852807       0.15458923 </v>
    <v>       0.60499234       0.13128013       0.14499486 </v>
    <v>       0.77863286       0.86029224       0.36463755 </v>
    <v>       0.63590769       0.77899502       0.90446498 </v>
    <v>       0.14912753       0.57672743       0.36727382 </v>
    <v>       0.13450452       0.05563331       0.81482925 </v>
    <v>       0.01575098       0.15073570       0.36902258 </v>
    <v>       0.35280976       0.29432725       0.98150736 </v>
    <v>       0.47957901       0.74744344       0.61848273 </v>
    <v>       0.50169566       0.62519647       0.64620841 </v>
    <v>       0.06319206       0.29531707       0.62816893 </v>
    <v>       0.22107337       0.80288104       0.96546177 </v>
    <v>       0.25756958       0.57036713       0.77846483 </v>
    <v>       0.90547529       0.70596847       0.59747041 </v>
    <v>       0.74067283       0.95465628       0.45011852 </v>
    <v>       0.08315244       0.68505495       0.38129686 </v>
    <v>       0.79314606       0.30132009       0.74030001 </v>
    <v>       0.92675209       0.20585013       0.08242985 </v>
    <v>       0.60863557       0.30638566       0.36671833 </v>
    <v>       0.68358431       0.83129755       0.02242180 </v>
    <v>       0.49197205       0.74533872       0.98332377 </v>
    <v>       0.66330081       0.70068344       0.18753274 </v>
    <v>       0.38539087       0.70592110       0.51461307 </v>
    <v>       0.14517688       0.47804905       0.24784195 </v>
    <v>       0.07977288       0.73470518       0.76603876 </v>
    <v>       0.39399327       0.02556006       0.48468682 </v>
    <v>       0.59837569       0.04992556       0.26590942 </v>
    <v>       0.52155678       0.59010569       0.36417721 </v>
    <v>       0.67684323       0.77123119       0.39767000 </v>
    <v>       0.92734988       0.04658180       0.32508747 </v>
    <v>       0.03486662       0.24184988       0.28777101 </v>
    <v>       0.38233746       0.41817583       0.69439373 </v>
    <v>       0.88676825       0.75900383       0.35964453 </v>
    <v>       0.44261453       0.15255536       0.30344920 </v>
    <v>       0.02268246       0.62253214       0.95034049 </v>
    <v>       0.39564208       0.91338201       0.01775405 </v>
    <v>       0.84699441       0.09075918       0.72154575 </v>
    <v>       0.39190644       0.81431203       0.69454084 </v>
    <v>       0.44437265       0.54667260       0.88314623 </v>
    <v>       0.02822535       0.41501780       0.41330238 </v>
    <v>       0.78310822       0.36068353       0.20171896 </v>
    <v>       0.24668186       0.86732452       0.43124930 </v>
    <v>       0.76213485       0.90027331       0.22168844 </v>
    <v>       0.03587362       0.86617078       0.19589136 </v>
    <v>       0.57967398       0.43375853       0.55359781 </v>
    <v>       0.17717931       0.09122940       0.69047825 </v>
    <v>       0.59891684       0.49540120       0.05238778 </v>
    <v>       0.49066629       0.22623954       0.52086877 </v>
    <v>       0.52167571       0.26219308       0.17341731 </v>
    <v>       0.10257962       0.09360558       0.44961146 </v>
    <v>       0.91444972       0.47622664       0.60744901 </v>
    <v>       0.13802272       0.71575969       0.12669542 </v>
    <v>       0.71216293       0.66232489       0.85617107 </v>
    <v>       0.57282468       0.07618857       0.04054412 </v>
    <v>       0.31758554       0.16641520       0.01398006 </v>
    <v>       0.33770201       0.36539602       0.10843885 </v>
    <v>       0.73512496       0.13605650       0.16471850 </v>
    <v>       0.63437347       0.12786625       0.72637166 </v>
    <v>       0.87447272       0.47258045       0.01441568 </v>
    <v>       0.10776066       0.15932203       0.89684497 </v>
    <v>       0.75913129       0.53578149       0.33868605 </v>
    <v>       0.59937206       0.88979148       0.81267353 </v>
    <v>       0.25233960       0.20340538       0.24823786 </v>
    <v>       0.96510531       0.59283810       0.23295116 </v>
    <v>       0.95316620       0.45629778       0.80981354 </v>
    <v>       0.07444955       0.37718849       0.00671316 </v>
    <v>       0.16351595       0.99465862       0.07465285 </v>
    <v>       0.71276386       0.21035043       0.54622506 </v>
    <v>       0.37885184       0.35769448       0.32258153 </v>
    <v>       0.67118369       0.50002968       0.73022113 </v>
    <v>       0.71047886       0.28607696       0.98737666 </v>
    <v>       0.26955614       0.98099382       0.85954511 </v>
    <v>       0.04447378       0.94440457       0.77190500 </v>
    <v>       0.28437081       0.35239671       0.87550868 </v>
    <v>       0.38999754       0.58695949       0.10305027 </v>
    <v>       0.29086126       0.24604912       0.51602806 </v>
    <v>       0.29048425       0.63662273       0.34488289 </v>
    <v>       0.26145426       0.89299615       0.22071689 </v>
    <v>       0.72083631       0.60202807       0.52043600 </v>
    <v>       0.56932320       0.83476470       0.59421618 </v>
    <v>       0.01995260       0.86028697       0.96206928 </v>
    <v>       0.17973658       0.51685569       0.51240747 </v>
    <v>       0.49078026       0.33238994       0.91907759 </v>
    <v>       0.44246902       0.85636271       0.32965775 </v>
    <v>       0.88487176       0.74628599       0.11387246 </v>
    <v>       0.93747615       0.22939872       0.47042585 </v>
    <v>       0.03128403       0.86156625       0.60451242 </v>
    <v>       0.40543798       0.14270906       0.70067777 </v>
    <v>       0.85556202       0.84131911       0.75735941 </v>
    <v>       0.83625465       0.96682457       0.92582854 </v>
   </varray>
  </structure>
  <varray name="forces" >
   <v>       1.31982470      -0.91739523       0.51434950 </v>
   <v>      -0.43591132      -1.03918909       0.08924413 </v>
   <v>       0.44607152      -0.23903461      -0.00087947 </v>
   <v>       1.21844577      -1.75151179      -1.91309972 </v>
   <v>      -2.17830162       0.08465970      -0.37474524 </v>
   <v>      -1.80726244      -2.51748188      -0.85066882 </v>
   <v>      -1.41261764       2.07870642       3.80723741 </v>
   <v>       1.27341137      -1.23408526      -1.84290356 </v>
   <v>      -1.33067124       0.54814551       0.76834421 </v>
   <v>       1.43429310       0.39186588       0.17134299 </v>
   <v>       0.59398255       0.05182035       1.84102558 </v>
   <v>      -0.19064905      -0.28442420      -0.76061865 </v>
   <v>      -0.00470610       1.03099915       0.67277412 </v>
   <v>       0.81353406      -0.54332166      -0.79541651 </v>
   <v>      -0.61678779       0.62584983      -0.74143030 </v>
   <v>      -3.76732347       1.97361023       2.22669810 </v>
   <v>      -2.57352746       1.26466470      -2.26045365 </v>
   <v>       2.77253139       0.37995741       0.53725722 </v>
   <v>      -0.88794813       0.51523497      -2.41464626 </v>
   <v>       0.34722539       0.01907867      -1.64803454 </v>
   <v>      -1.90943859      -1.00057776       1.23461688 </v>
   <v>      -1.39300680       2.77767143      -0.20684162 </v>
   <v>      -1.61992459       2.14306978       0.33924946 </v>
   <v>      -0.48501505      -0.72270614       0.42169272 </v>
   <v>       4.68010957       0.55270176       1.59808870 </v>
   <v>      -2.22297164       0.19849409       1.18704621 </v>
   <v>       0.54410333      -0.25723172      -0.29077398 </v>
   <v>       0.38475812       6.37062960      -0.40167858 </v>
   <v>       1.57109325       2.07706271      -1.19073641 </v>
   <v>       0.04304452       3.37982341       3.09239639 </v>
   <v>       5.33230688      -5.62137645       3.01405049 </v>
   <v>      -2.21359519      -0.38894893       0.78060156 </v>
   <v>      -5.22905811       1.51929479       2.32772724 </v>
   <v>      -0.44140925      -1.23833472      -2.87735747 </v>
   <v>      -5.86378269       1.13338560      -2.13550195 </v>
   <v>       0.43153232       4.09455503       3.97537171 </v>
   <v>      -3.52409031      -0.44894938       0.76033850 </v>
   <v>      -1.96349410       0.67241283       0.88117467 </v>
   <v>      -0.02782828       1.38505053       4.44286483 </v>
   <v>      -0.08615027       3.18028992       2.99159527 </v>
   <v>       4.13306848      -0.01296269      -8.06058833 </v>
   <v>      -4.17104380       1.24854089      -0.78026661 </v>
   <v>       0.06437510      -1.29504664       5.62883008 </v>
   <v>      -2.10406147      -0.22814824      -0.06844259 </v>
   <v>       7.25176586       0.26924721      -5.88270774 </v>
   <v>       6.27964875       3.87575655      -3.12079103 </v>
   <v>      -4.51282527       1.25461802      10.22795836 </v>
   <v>       0.62884451      -4.18110616      -2.92326499 </v>
   <v>      -1.22525765      -0.12407996      -1.93652234 </v>
   <v>       6.60516605      -6.83650149      -1.53223877 </v>
   <v>       2.67509047      -1.71849018       1.33913938 </v>
   <v>      -5.92962886      -3.43821300       4.20802795 </v>
   <v>       6.18936529       0.48733727       0.42680632 </v>
   <v>      -5.36621716       3.70938396      -3.86774836 </v>
   <v>       3.37994381      -7.05309853       2.66867754 </v>
   <v>       0.94401325      -0.19358601       1.84110095 </v>
   <v>      -0.89827716      -1.99524139      -1.46739207 </v>
   <v>       0.80437913      -1.36570971       2.66157016 </v>
   <v>      -0.03032788      -0.57479616       3.07129251 </v>
   <v>       1.26675599       3.15369273       1.95485089 </v>
   <v>      -2.59230675       5.02641358       0.17344494 </v>
   <v>      -0.38593682       1.32590891       1.70960649 </v>
   <v>      -1.07401092       0.44203760      -0.94026802 </v>
   <v>      -0.98957503       1.34779237      -1.28515372 </v>
   <v>       1.82539166       0.20067288       1.45347226 </v>
   <v>       3.64272559      -4.38553035      -2.85476781 </v>
   <v>      -1.50993358      -4.08064839       1.35649758 </v>
   <v>      -0.24176896       2.23953539      -2.17664655 </v>
   <v>       1.54590653       1.88518965       2.00400613 </v>
   <v>      -0.36814942      -0.61210016       2.66422119 </v>
   <v>      -1.41032788       1.31162648       4.00303311 </v>
   <v>       0.31744720      -0.07771423      -0.73862338 </v>
   <v>       3.19333354       0.80522361      -0.85887285 </v>
   <v>      -1.86017153      -2.64055801      -1.14031960 </v>
   <v>       0.38356857       0.34303023       0.19707424 </v>
   <v>       2.41168270       5.19659071      -7.56352307 </v>
   <v>       1.00265720      -2.25020505      -4.61444089 </v>
   <v>      -0.47741924       3.55475127      -0.61976243 </v>
   <v>      -1.50713429       0.19895771       4.67663263 </v>
   <v>       1.98690128       0.44753149       0.10650753 </v>
   <v>       4.67919478      -0.23634451       1.23212057 </v>
   <v>       1.21386213      -0.72478138      -0.25334273 </v>
   <v>      -3.23981494       1.89495031       3.67455118 </v>
   <v>       0.38820505       0.51191210       0.66181898 </v>
   <v>      -0.86917956       1.51931544      -0.75313489 </v>
   <v>      -1.65664112      -2.39767465      -1.27095458 </v>
   <v>      -1.23291595      -2.30186444       1.03735833 </v>
   <v>       0.61543759      -1.83778650       0.07506113 </v>
   <v>      -6.46268257       0.58032719       3.96101998 </v>
   <v>      -2.58765869      -1.20868416      -1.14839914 </v>
   <v>      -0.52419019       0.34520148      -0.48715072 </v>
   <v>      -0.12833292       1.52919270       0.15776112 </v>
   <v>       2.27639552       1.85430032      -2.13810219 </v>
   <v>       3.24089024      -0.15969166      -3.87261796 </v>
   <v>       3.82552895      -2.92242433       0.49132979 </v>
   <v>       1.86257408      -3.20565507      -2.52432403 </v>
   <v>      -1.67712445      -3.21259096       0.53629276 </v>
   <v>      -2.21757181       3.20635638       2.58582757 </v>
   <v>      -2.38496477      -3.83425378      -9.43537574 </v>
   <v>       0.12119306      -0.53800883       0.44756052 </v>
   <v>      -0.01688542      -1.71342349      -0.87138148 </v>
   <v>       7.38186385       3.59754557      -1.42853393 </v>
   <v>      -0.34258585      -1.33704252       1.96823455 </v>
   <v>      -4.92661630      -1.51010346       1.80966439 </v>
   <v>      -1.45375144       0.21987952      -0.47228033 </v>
   <v>       0.20591792      -0.89473006      -2.50013682 </v>
   <v>       3.66712088      -4.10142379       2.15897583 </v>
   <v>       1.18597033      -1.89623792      -3.47369678 </v>
   <v>      -0.94890975      -1.20892202      -0.88754950 </v>
   <v>       1.83684840       0.04665063       3.68743167 </v>
   <v>      -1.04885502       2.77041924      -0.61115478 </v>
   <v>       0.58112230      -1.52681365      -1.50288545 </v>
   <v>       1.55999268      -0.57113668       0.81826018 </v>
   <v>       1.91733735       2.39581975       0.11126362 </v>
   <v>       1.39022700       0.00771323       0.69701400 </v>
   <v>       3.36407703      -1.77654240       1.79639606 </v>
   <v>      -3.54450541       1.90617415      -3.31371391 </v>
   <v>       0.72703921       3.90810788       2.32307101 </v>
   <v>      -2.26739763       2.07280104       0.70057713 </v>
   <v>       1.97394343       0.50030760      -0.30503329 </v>
   <v>      -2.18059589      -0.08962540      -0.13005630 </v>
   <v>      -1.17607021      -1.20379791      -1.42450186 </v>
   <v>       1.50351320      -1.65408430       0.55325766 </v>
   <v>      -3.52417891      -0.49087183       2.21999235 </v>
   <v>       3.87343309       2.88387411      -2.17960466 </v>
   <v>      -1.44899435      -1.91892524      -2.50038521 </v>
   <v>       1.27259838       0.56283239      -4.61955488 </v>
   <v>      -2.86027392      -1.24818248       0.05888612 </v>
   <v>      -2.60582494      -4.52221447      -0.83588509 </v>
   <v>       1.02752654      -0.97559478      -1.15895800 </v>
   <v>      -1.09471191       0.51222930       0.64149159 </v>
   <v>       1.39140881       2.48357119      -2.87108594 </v>
   <v>      -1.69896461      -0.47880825      -2.17871593 </v>
   <v>      -0.20815272      -0.62091614       1.96798781 </v>
   <v>       0.34667544       1.50510790       1.86559996 </v>
  </varray>
  <varray name="stress" >
   <v>     203.18332812      16.91027075     -17.23622250 </v>
   <v>      16.91027084     136.84280291      10.69678392 </v>
   <v>     -17.23622252      10.69678389     156.90509337 </v>
  </varray>
  <energy>
   <i name="e_fr_energy">   -931.07541532 </i>
   <i name="e_wo_entrp">   -931.07541532 </i>
   <i name="e_0_energy">     -0.00000000 </i>
  </energy>
  <time name="totalsc">  874.93  879.98</time>
  <eigenvalues>
   <array>
    <dimension dim="1">band</dimension>
    <dimension dim="2">kpoint</dimension>
    <dimension dim="3">spin</dimension>
    <field>eigene</field>
    <field>occ</field>
    <set>
     <set comment="spin 1">
      <set comment="kpoint 1">
       <r>  -35.3199    1.0000 </r>
       <r>  -35.2649    1.0000 </r>
       <r>  -35.2321    1.0000 </r>
       <r>  -35.0410    1.0000 </r>
       <r>  -34.7560    1.0000 </r>
       <r>  -34.7181    1.0000 </r>
       <r>  -34.7072    1.0000 </r>
       <r>  -34.6873    1.0000 </r>
       <r>  -34.6401    1.0000 </r>
       <r>  -34.6283    1.0000 </r>
       <r>  -34.5838    1.0000 </r>
       <r>  -34.5124    1.0000 </r>
       <r>  -34.5031    1.0000 </r>
       <r>  -34.4806    1.0000 </r>
       <r>  -34.4567    1.0000 </r>
       <r>  -34.4551    1.0000 </r>
       <r>  -34.2857    1.0000 </r>
       <r>  -34.2762    1.0000 </r>
       <r>  -34.1821    1.0000 </r>
       <r>  -34.0943    1.0000 </r>
       <r>  -34.0904    1.0000 </r>
       <r>  -33.7783    1.0000 </r>
       <r>  -33.5708    1.0000 </r>
       <r>  -33.4651    1.0000 </r>
       <r>  -33.1735    1.0000 </r>
       <r>  -33.1348    1.0000 </r>
       <r>  -32.7778    1.0000 </r>
[...]
       <r>     5.9177     0.0000   864.0000 </r>
       <r>     6.0879     0.0000   864.0000 </r>
       <r>     6.2580     0.0000   864.0000 </r>
       <r>     6.4281     1.3637   864.2320 </r>
       <r>     6.5983    10.1393   865.9572 </r>
       <r>     6.7684     0.2515   866.0000 </r>
       <r>     6.9386     0.0000   866.0000 </r>
       <r>     7.1087     0.0006   866.0001 </r>
       <r>     7.2789     8.9932   867.5303 </r>
       <r>     7.4490     2.9716   868.0359 </r>
       <r>     7.6192     5.0619   868.8972 </r>
       <r>     7.7893    11.8325   870.9104 </r>
       <r>     7.9595     7.2453   872.1432 </r>
       <r>     8.1296     4.6097   872.9275 </r>
       <r>     8.2998    21.6447   876.6103 </r>
       <r>     8.4699    28.8644   881.5215 </r>
       <r>     8.6401    35.5416   887.5688 </r>
       <r>     8.8102    45.4533   895.3026 </r>
       <r>     8.9804    47.5495   903.3930 </r>
       <r>     9.1505    38.0414   909.8657 </r>
       <r>     9.3207    56.5123   919.4811 </r>
       <r>     9.4908    59.4217   929.5916 </r>
       <r>     9.6609    58.0433   939.4675 </r>
       <r>     9.8311    65.6172   950.6321 </r>
       <r>    10.0012    68.8602   962.3485 </r>
       <r>    10.1714    66.8693   973.7261 </r>
       <r>    10.3415    71.7158   985.9284 </r>
       <r>    10.5117    74.7667   998.6497 </r>
       <r>    10.6818    75.9697  1011.5758 </r>
       <r>    10.8520    76.8792  1024.6566 </r>
       <r>    11.0221    70.8592  1036.7131 </r>
       <r>    11.1923    19.3145  1039.9994 </r>
       <r>    11.3624     0.0033  1040.0000 </r>
       <r>    11.5326     0.0000  1040.0000 </r>
       <r>    11.7027     0.0000  1040.0000 </r>
       <r>    11.8729     0.0000  1040.0000 </r>
       <r>    12.0430     0.0000  1040.0000 </r>
       <r>    12.2132     0.0000  1040.0000 </r>
       <r>    12.3833     0.0000  1040.0000 </r>
       <r>    12.5535     0.0000  1040.0000 </r>
       <r>    12.7236     0.0000  1040.0000 </r>
       <r>    12.8938     0.0000  1040.0000 </r>
       <r>    13.0639     0.0000  1040.0000 </r>
       <r>    13.2340     0.0000  1040.0000 </r>
       <r>    13.4042     0.0000  1040.0000 </r>
      </set>
     </set>
    </array>
   </total>
  </dos>
 </calculation>
 <structure name="finalpos" >
  <crystal>
   <varray name="basis" >
    <v>      11.62817333       0.00000000       0.00000000 </v>
    <v>       0.00000000      11.62817333       0.00000000 </v>
    <v>       0.00000000       0.00000000      11.62817333 </v>
   </varray>
   <i name="volume">   1572.29665425 </i>
   <varray name="rec_basis" >
    <v>       0.08599803       0.00000000       0.00000000 </v>
    <v>       0.00000000       0.08599803       0.00000000 </v>
    <v>       0.00000000       0.00000000       0.08599803 </v>
   </varray>
  </crystal>
  <varray name="positions" >
   <v>       0.02989138       0.88612370       0.41011523 </v>
   <v>       0.69405288       0.44616353       0.89369461 </v>
   <v>       0.74040063       0.38891254       0.47960087 </v>
   <v>       0.23465521       0.92278936       0.63161810 </v>
   <v>       0.71718867       0.10033116       0.90892239 </v>
   <v>       0.85356768       0.60468987       0.75164781 </v>
   <v>       0.76618388       0.53576815       0.12530955 </v>
   <v>       0.22046889       0.27826468       0.71880610 </v>
   <v>       0.00669025       0.09444873       0.60393464 </v>
   <v>       0.34492577       0.71845382       0.84758626 </v>
   <v>       0.21140685       0.51719182       0.06800226 </v>
   <v>       0.90317546       0.01054571       0.14041781 </v>
   <v>       0.71738859       0.91931634       0.63986671 </v>
   <v>       0.92615089       0.26955567       0.86980317 </v>
   <v>       0.53315925       0.28689879       0.72268098 </v>
   <v>       0.20983271       0.32196952       0.36250481 </v>
   <v>       0.93614418       0.58906470       0.46307546 </v>
   <v>       0.54256874       0.95793329       0.42056381 </v>
   <v>       0.28220482       0.03009407       0.35092155 </v>
   <v>       0.51918784       0.45592330       0.23329534 </v>
   <v>       0.40700159       0.52422669       0.48965159 </v>
   <v>       0.46333002       0.99014783       0.82654117 </v>
   <v>       0.50632214       0.79959084       0.16184272 </v>
   <v>       0.74463764       0.15011037       0.36700023 </v>
   <v>       0.94856847       0.40554973       0.21856388 </v>
   <v>       0.12625248       0.56407578       0.66424012 </v>
   <v>       0.12752394       0.20399901       0.09932612 </v>
   <v>       0.75583122       0.77668257       0.13509897 </v>
   <v>       0.61747308       0.54426372       0.61798736 </v>
   <v>       0.35328902       0.46135415       0.81150627 </v>
   <v>       0.47213613       0.28168208       0.38733017 </v>
   <v>       0.00280651       0.71793144       0.19983394 </v>
   <v>       0.27735812       0.95094254       0.99185368 </v>
   <v>       0.75160550       0.18802540       0.68043186 </v>
   <v>       0.39151696       0.23474116       0.20659212 </v>
   <v>       0.33712819       0.76279528       0.37760556 </v>
   <v>       0.99771800       0.36696257       0.53631587 </v>
   <v>       0.09675754       0.74530692       0.91784698 </v>
   <v>       0.93273216       0.91475884       0.85120987 </v>
   <v>       0.66159994       0.62326644       0.37628773 </v>
   <v>       0.96282327       0.78564857       0.69557527 </v>
   <v>       0.50044239       0.58357520       0.01346175 </v>
   <v>       0.38262366       0.14986192       0.54621235 </v>
   <v>       0.79692121       0.25938604       0.10254850 </v>
   <v>       0.98380545       0.47888439       0.95319636 </v>
   <v>       0.15652459       0.84852807       0.15458923 </v>
   <v>       0.60499234       0.13128013       0.14499486 </v>
   <v>       0.77863286       0.86029224       0.36463755 </v>
   <v>       0.63590769       0.77899502       0.90446498 </v>
   <v>       0.14912753       0.57672743       0.36727382 </v>
   <v>       0.13450452       0.05563331       0.81482925 </v>
   <v>       0.01575098       0.15073570       0.36902258 </v>
   <v>       0.35280976       0.29432725       0.98150736 </v>
   <v>       0.47957901       0.74744344       0.61848273 </v>
   <v>       0.50169566       0.62519647       0.64620841 </v>
   <v>       0.06319206       0.29531707       0.62816893 </v>
   <v>       0.22107337       0.80288104       0.96546177 </v>
   <v>       0.25756958       0.57036713       0.77846483 </v>
   <v>       0.90547529       0.70596847       0.59747041 </v>
   <v>       0.74067283       0.95465628       0.45011852 </v>
   <v>       0.08315244       0.68505495       0.38129686 </v>
   <v>       0.79314606       0.30132009       0.74030001 </v>
   <v>       0.92675209       0.20585013       0.08242985 </v>
   <v>       0.60863557       0.30638566       0.36671833 </v>
   <v>       0.68358431       0.83129755       0.02242180 </v>
   <v>       0.49197205       0.74533872       0.98332377 </v>
   <v>       0.66330081       0.70068344       0.18753274 </v>
   <v>       0.38539087       0.70592110       0.51461307 </v>
   <v>       0.14517688       0.47804905       0.24784195 </v>
   <v>       0.07977288       0.73470518       0.76603876 </v>
   <v>       0.39399327       0.02556006       0.48468682 </v>
   <v>       0.59837569       0.04992556       0.26590942 </v>
   <v>       0.52155678       0.59010569       0.36417721 </v>
   <v>       0.67684323       0.77123119       0.39767000 </v>
   <v>       0.92734988       0.04658180       0.32508747 </v>
   <v>       0.03486662       0.24184988       0.28777101 </v>
   <v>       0.38233746       0.41817583       0.69439373 </v>
   <v>       0.88676825       0.75900383       0.35964453 </v>
   <v>       0.44261453       0.15255536       0.30344920 </v>
   <v>       0.02268246       0.62253214       0.95034049 </v>
   <v>       0.39564208       0.91338201       0.01775405 </v>
   <v>       0.84699441       0.09075918       0.72154575 </v>
   <v>       0.39190644       0.81431203       0.69454084 </v>
   <v>       0.44437265       0.54667260       0.88314623 </v>
   <v>       0.02822535       0.41501780       0.41330238 </v>
   <v>       0.78310822       0.36068353       0.20171896 </v>
   <v>       0.24668186       0.86732452       0.43124930 </v>
   <v>       0.76213485       0.90027331       0.22168844 </v>
   <v>       0.03587362       0.86617078       0.19589136 </v>
   <v>       0.57967398       0.43375853       0.55359781 </v>
   <v>       0.17717931       0.09122940       0.69047825 </v>
   <v>       0.59891684       0.49540120       0.05238778 </v>
   <v>       0.49066629       0.22623954       0.52086877 </v>
   <v>       0.52167571       0.26219308       0.17341731 </v>
   <v>       0.10257962       0.09360558       0.44961146 </v>
   <v>       0.91444972       0.47622664       0.60744901 </v>
   <v>       0.13802272       0.71575969       0.12669542 </v>
   <v>       0.71216293       0.66232489       0.85617107 </v>
   <v>       0.57282468       0.07618857       0.04054412 </v>
   <v>       0.31758554       0.16641520       0.01398006 </v>
   <v>       0.33770201       0.36539602       0.10843885 </v>
   <v>       0.73512496       0.13605650       0.16471850 </v>
   <v>       0.63437347       0.12786625       0.72637166 </v>
   <v>       0.87447272       0.47258045       0.01441568 </v>
   <v>       0.10776066       0.15932203       0.89684497 </v>
   <v>       0.75913129       0.53578149       0.33868605 </v>
   <v>       0.59937206       0.88979148       0.81267353 </v>
   <v>       0.25233960       0.20340538       0.24823786 </v>
   <v>       0.96510531       0.59283810       0.23295116 </v>
   <v>       0.95316620       0.45629778       0.80981354 </v>
   <v>       0.07444955       0.37718849       0.00671316 </v>
   <v>       0.16351595       0.99465862       0.07465285 </v>
   <v>       0.71276386       0.21035043       0.54622506 </v>
   <v>       0.37885184       0.35769448       0.32258153 </v>
   <v>       0.67118369       0.50002968       0.73022113 </v>
   <v>       0.71047886       0.28607696       0.98737666 </v>
   <v>       0.26955614       0.98099382       0.85954511 </v>
   <v>       0.04447378       0.94440457       0.77190500 </v>
   <v>       0.28437081       0.35239671       0.87550868 </v>
   <v>       0.38999754       0.58695949       0.10305027 </v>
   <v>       0.29086126       0.24604912       0.51602806 </v>
   <v>       0.29048425       0.63662273       0.34488289 </v>
   <v>       0.26145426       0.89299615       0.22071689 </v>
   <v>       0.72083631       0.60202807       0.52043600 </v>
   <v>       0.56932320       0.83476470       0.59421618 </v>
   <v>       0.01995260       0.86028697       0.96206928 </v>
   <v>       0.17973658       0.51685569       0.51240747 </v>
   <v>       0.49078026       0.33238994       0.91907759 </v>
   <v>       0.44246902       0.85636271       0.32965775 </v>
   <v>       0.88487176       0.74628599       0.11387246 </v>
   <v>       0.93747615       0.22939872       0.47042585 </v>
   <v>       0.03128403       0.86156625       0.60451242 </v>
   <v>       0.40543798       0.14270906       0.70067777 </v>
   <v>       0.85556202       0.84131911       0.75735941 </v>
   <v>       0.83625465       0.96682457       0.92582854 </v>
  </varray>
  <varray name="velocities" >
   <v>       0.00000000       0.00000000       0.00000000 </v>
   <v>       0.00000000       0.00000000       0.00000000 </v>
   <v>       0.00000000       0.00000000       0.00000000 </v>
   <v>       0.00000000       0.00000000       0.00000000 </v>
   <v>       0.00000000       0.00000000       0.00000000 </v>
   <v>       0.00000000       0.00000000       0.00000000 </v>
   <v>       0.00000000       0.00000000       0.00000000 </v>
   <v>       0.00000000       0.00000000       0.00000000 </v>
   <v>       0.00000000       0.00000000       0.00000000 </v>
   <v>       0.00000000       0.00000000       0.00000000 </v>
   <v>       0.00000000       0.00000000       0.00000000 </v>
   <v>       0.00000000       0.00000000       0.00000000 </v>
   <v>       0.00000000       0.00000000       0.00000000 </v>
   <v>       0.00000000       0.00000000       0.00000000 </v>
   <v>       0.00000000       0.00000000       0.00000000 </v>
   <v>       0.00000000       0.00000000       0.00000000 </v>
   <v>       0.00000000       0.00000000       0.00000000 </v>
   <v>       0.00000000       0.00000000       0.00000000 </v>
   <v>       0.00000000       0.00000000       0.00000000 </v>
   <v>       0.00000000       0.00000000       0.00000000 </v>
   <v>       0.00000000       0.00000000       0.00000000 </v>
   <v>       0.00000000       0.00000000       0.00000000 </v>
   <v>       0.00000000       0.00000000       0.00000000 </v>
   <v>       0.00000000       0.00000000       0.00000000 </v>
   <v>       0.00000000       0.00000000       0.00000000 </v>
   <v>       0.00000000       0.00000000       0.00000000 </v>
   <v>       0.00000000       0.00000000       0.00000000 </v>
   <v>       0.00000000       0.00000000       0.00000000 </v>
   <v>       0.00000000       0.00000000       0.00000000 </v>
   <v>       0.00000000       0.00000000       0.00000000 </v>
   <v>       0.00000000       0.00000000       0.00000000 </v>
   <v>       0.00000000       0.00000000       0.00000000 </v>
   <v>       0.00000000       0.00000000       0.00000000 </v>
   <v>       0.00000000       0.00000000       0.00000000 </v>
   <v>       0.00000000       0.00000000       0.00000000 </v>
   <v>       0.00000000       0.00000000       0.00000000 </v>
   <v>       0.00000000       0.00000000       0.00000000 </v>
   <v>       0.00000000       0.00000000       0.00000000 </v>
   <v>       0.00000000       0.00000000       0.00000000 </v>
   <v>       0.00000000       0.00000000       0.00000000 </v>
   <v>       0.00000000       0.00000000       0.00000000 </v>
   <v>       0.00000000       0.00000000       0.00000000 </v>
   <v>       0.00000000       0.00000000       0.00000000 </v>
   <v>       0.00000000       0.00000000       0.00000000 </v>
   <v>       0.00000000       0.00000000       0.00000000 </v>
   <v>       0.00000000       0.00000000       0.00000000 </v>
   <v>       0.00000000       0.00000000       0.00000000 </v>
   <v>       0.00000000       0.00000000       0.00000000 </v>
   <v>       0.00000000       0.00000000       0.00000000 </v>
   <v>       0.00000000       0.00000000       0.00000000 </v>
   <v>       0.00000000       0.00000000       0.00000000 </v>
   <v>       0.00000000       0.00000000       0.00000000 </v>
   <v>       0.00000000       0.00000000       0.00000000 </v>
   <v>       0.00000000       0.00000000       0.00000000 </v>
   <v>       0.00000000       0.00000000       0.00000000 </v>
   <v>       0.00000000       0.00000000       0.00000000 </v>
   <v>       0.00000000       0.00000000       0.00000000 </v>
   <v>       0.00000000       0.00000000       0.00000000 </v>
   <v>       0.00000000       0.00000000       0.00000000 </v>
   <v>       0.00000000       0.00000000       0.00000000 </v>
   <v>       0.00000000       0.00000000       0.00000000 </v>
   <v>       0.00000000       0.00000000       0.00000000 </v>
   <v>       0.00000000       0.00000000       0.00000000 </v>
   <v>       0.00000000       0.00000000       0.00000000 </v>
   <v>       0.00000000       0.00000000       0.00000000 </v>
   <v>       0.00000000       0.00000000       0.00000000 </v>
   <v>       0.00000000       0.00000000       0.00000000 </v>
   <v>       0.00000000       0.00000000       0.00000000 </v>
   <v>       0.00000000       0.00000000       0.00000000 </v>
   <v>       0.00000000       0.00000000       0.00000000 </v>
   <v>       0.00000000       0.00000000       0.00000000 </v>
   <v>       0.00000000       0.00000000       0.00000000 </v>
   <v>       0.00000000       0.00000000       0.00000000 </v>
   <v>       0.00000000       0.00000000       0.00000000 </v>
   <v>       0.00000000       0.00000000       0.00000000 </v>
   <v>       0.00000000       0.00000000       0.00000000 </v>
   <v>       0.00000000       0.00000000       0.00000000 </v>
   <v>       0.00000000       0.00000000       0.00000000 </v>
   <v>       0.00000000       0.00000000       0.00000000 </v>
   <v>       0.00000000       0.00000000       0.00000000 </v>
   <v>       0.00000000       0.00000000       0.00000000 </v>
   <v>       0.00000000       0.00000000       0.00000000 </v>
   <v>       0.00000000       0.00000000       0.00000000 </v>
   <v>       0.00000000       0.00000000       0.00000000 </v>
   <v>       0.00000000       0.00000000       0.00000000 </v>
   <v>       0.00000000       0.00000000       0.00000000 </v>
   <v>       0.00000000       0.00000000       0.00000000 </v>
   <v>       0.00000000       0.00000000       0.00000000 </v>
   <v>       0.00000000       0.00000000       0.00000000 </v>
   <v>       0.00000000       0.00000000       0.00000000 </v>
   <v>       0.00000000       0.00000000       0.00000000 </v>
   <v>       0.00000000       0.00000000       0.00000000 </v>
   <v>       0.00000000       0.00000000       0.00000000 </v>
   <v>       0.00000000       0.00000000       0.00000000 </v>
   <v>       0.00000000       0.00000000       0.00000000 </v>
   <v>       0.00000000       0.00000000       0.00000000 </v>
   <v>       0.00000000       0.00000000       0.00000000 </v>
   <v>       0.00000000       0.00000000       0.00000000 </v>
   <v>       0.00000000       0.00000000       0.00000000 </v>
   <v>       0.00000000       0.00000000       0.00000000 </v>
   <v>       0.00000000       0.00000000       0.00000000 </v>
   <v>       0.00000000       0.00000000       0.00000000 </v>
   <v>       0.00000000       0.00000000       0.00000000 </v>
   <v>       0.00000000       0.00000000       0.00000000 </v>
   <v>       0.00000000       0.00000000       0.00000000 </v>
   <v>       0.00000000       0.00000000       0.00000000 </v>
   <v>       0.00000000       0.00000000       0.00000000 </v>
   <v>       0.00000000       0.00000000       0.00000000 </v>
   <v>       0.00000000       0.00000000       0.00000000 </v>
   <v>       0.00000000       0.00000000       0.00000000 </v>
   <v>       0.00000000       0.00000000       0.00000000 </v>
   <v>       0.00000000       0.00000000       0.00000000 </v>
   <v>       0.00000000       0.00000000       0.00000000 </v>
   <v>       0.00000000       0.00000000       0.00000000 </v>
   <v>       0.00000000       0.00000000       0.00000000 </v>
   <v>       0.00000000       0.00000000       0.00000000 </v>
   <v>       0.00000000       0.00000000       0.00000000 </v>
   <v>       0.00000000       0.00000000       0.00000000 </v>
   <v>       0.00000000       0.00000000       0.00000000 </v>
   <v>       0.00000000       0.00000000       0.00000000 </v>
   <v>       0.00000000       0.00000000       0.00000000 </v>
   <v>       0.00000000       0.00000000       0.00000000 </v>
   <v>       0.00000000       0.00000000       0.00000000 </v>
   <v>       0.00000000       0.00000000       0.00000000 </v>
   <v>       0.00000000       0.00000000       0.00000000 </v>
   <v>       0.00000000       0.00000000       0.00000000 </v>
   <v>       0.00000000       0.00000000       0.00000000 </v>
   <v>       0.00000000       0.00000000       0.00000000 </v>
   <v>       0.00000000       0.00000000       0.00000000 </v>
   <v>       0.00000000       0.00000000       0.00000000 </v>
   <v>       0.00000000       0.00000000       0.00000000 </v>
   <v>       0.00000000       0.00000000       0.00000000 </v>
   <v>       0.00000000       0.00000000       0.00000000 </v>
   <v>       0.00000000       0.00000000       0.00000000 </v>
   <v>       0.00000000       0.00000000       0.00000000 </v>
  </varray>
 </structure>
</modeling>
