 running on   52 total cores
 distrk:  each k-point on   52 cores,    1 groups
 distr:  one band on   13 cores,    4 groups
 using from now: INCAR     
 vasp.5.4.4.18Apr17-6-g9f103f2a35 (build Oct 31 2019 15:01:46) complex          
  
 POSCAR found type information on POSCAR  Sc F  C 
 POSCAR found :  3 types and      80 ions
 scaLAPACK is switched off
 LDA part: xc-table for Pade appr. of Perdew
 generate k-points for:    3    3    1
 POSCAR, INCAR and KPOINTS ok, starting setup
 FFT: planning ...
 WAVECAR not read
 entering main loop
       N       E                     dE             d eps       ncg     rms          rms(c)
DAV:   1     0.137042631876E+05    0.13704E+05   -0.27865E+05  4232   0.156E+03
DAV:   2     0.249507203936E+04   -0.11209E+05   -0.10906E+05  4656   0.534E+02
DAV:   3    -0.375649753380E+03   -0.28707E+04   -0.27520E+04  6792   0.294E+02
DAV:   4    -0.737751050384E+03   -0.36210E+03   -0.35771E+03  6056   0.139E+02
DAV:   5    -0.752377003427E+03   -0.14626E+02   -0.14562E+02  6080   0.356E+01    0.781E+01
DAV:   6    -0.596321141140E+03    0.15606E+03   -0.83837E+02  5760   0.648E+01    0.256E+01
DAV:   7    -0.596453007225E+03   -0.13187E+00   -0.54606E+01  5912   0.216E+01    0.166E+01
DAV:   8    -0.594914032800E+03    0.15390E+01   -0.10205E+01  5568   0.836E+00    0.452E+00
DAV:   9    -0.594408708750E+03    0.50532E+00   -0.26674E+00  5512   0.523E+00    0.223E+00
DAV:  10    -0.594374198676E+03    0.34510E-01   -0.29477E-01  5928   0.171E+00    0.120E+00
DAV:  11    -0.594256182869E+03    0.11802E+00   -0.16221E-01  5544   0.114E+00    0.821E-01
DAV:  12    -0.594226569508E+03    0.29613E-01   -0.53248E-02  5984   0.643E-01    0.342E-01
DAV:  13    -0.594218116892E+03    0.84526E-02   -0.33819E-02  5824   0.445E-01    0.289E-01
DAV:  14    -0.594213391565E+03    0.47253E-02   -0.91628E-03  5840   0.231E-01    0.163E-01
DAV:  15    -0.594219343436E+03   -0.59519E-02   -0.14132E-02  5536   0.233E-01    0.145E-01
DAV:  16    -0.594222251041E+03   -0.29076E-02   -0.26998E-03  5704   0.162E-01    0.941E-02
DAV:  17    -0.594226888220E+03   -0.46372E-02   -0.38387E-03  5936   0.131E-01    0.106E-01
DAV:  18    -0.594230996074E+03   -0.41079E-02   -0.91548E-04  5376   0.874E-02    0.653E-02
DAV:  19    -0.594232707876E+03   -0.17118E-02   -0.59982E-04  5536   0.552E-02    0.214E-02
DAV:  20    -0.594235489243E+03   -0.27814E-02   -0.16809E-04  5328   0.263E-02    0.216E-02
DAV:  21    -0.594238176586E+03   -0.26873E-02   -0.12329E-04  4760   0.172E-02    0.165E-02
DAV:  22    -0.594239442848E+03   -0.12663E-02   -0.96370E-05  4568   0.156E-02    0.657E-03
DAV:  23    -0.594239975383E+03   -0.53253E-03   -0.22406E-05  4840   0.931E-03    0.470E-03
DAV:  24    -0.594240323276E+03   -0.34789E-03   -0.11707E-05  4264   0.509E-03    0.308E-03
DAV:  25    -0.594240486801E+03   -0.16352E-03   -0.42464E-06  3944   0.398E-03    0.213E-03
DAV:  26    -0.594240595068E+03   -0.10827E-03   -0.25582E-06  3496   0.258E-03    0.219E-03
DAV:  27    -0.594240623154E+03   -0.28086E-04   -0.46590E-07  2688   0.224E-03    0.153E-03
DAV:  28    -0.594240648107E+03   -0.24953E-04   -0.11194E-06  2928   0.253E-03    0.105E-03
DAV:  29    -0.594240655276E+03   -0.71684E-05   -0.42611E-07  2616   0.211E-03    0.113E-03
DAV:  30    -0.594240662917E+03   -0.76409E-05   -0.30209E-07  2648   0.145E-03    0.930E-04
DAV:  31    -0.594240664466E+03   -0.15492E-05   -0.18315E-07  2520   0.138E-03    0.630E-04
DAV:  32    -0.594240665512E+03   -0.10459E-05   -0.12505E-07  2544   0.858E-04    0.593E-04
DAV:  33    -0.594240666656E+03   -0.11445E-05   -0.83068E-08  2536   0.927E-04    0.483E-04
DAV:  34    -0.594240667577E+03   -0.92103E-06   -0.65223E-08  2584   0.600E-04
   1 F= -.59424067E+03 E0= -.59424067E+03  d E =-.411891E-11
