<?xml version="1.0" encoding="ISO-8859-1"?>
<modeling>
 <generator>
  <i name="program" type="string">vasp </i>
  <i name="version" type="string">5.4.4.18Apr17-6-g9f103f2a35  </i>
  <i name="subversion" type="string">(build Oct 31 2019 15:01:46) complex            parallel </i>
  <i name="platform" type="string">LinuxIFC </i>
  <i name="date" type="string">2024 04 20 </i>
  <i name="time" type="string">12:17:01 </i>
 </generator>
 <incar>
  <i type="int" name="ISTART">     0</i>
  <i type="string" name="PREC">anormal</i>
  <i type="logical" name="ADDGRID"> T  </i>
  <i type="int" name="IBRION">    -1</i>
  <i name="EDIFF">      0.00000100</i>
  <i name="EDIFFG">     -0.01000000</i>
  <i type="int" name="NSW">     1</i>
  <i type="int" name="ISIF">     2</i>
  <i type="int" name="ISYM">     2</i>
  <i name="ENCUT">    600.00000000</i>
  <i name="POTIM">      1.00000000</i>
  <i type="string" name="LREAL"> Auto.</i>
  <i type="int" name="ISMEAR">     0</i>
  <i name="SIGMA">      0.05000000</i>
  <i name="KSPACING">      0.25000000</i>
  <i type="logical" name="LWAVE"> F  </i>
  <i type="logical" name="LCHARG"> F  </i>
  <i type="logical" name="LSCALAPACK"> F  </i>
  <v type="int" name="KPOINT_BSE">    -1     0     0     0</v>
 </incar>
 <structure name="primitive_cell" >
  <crystal>
   <varray name="basis" >
    <v>      13.12862340       0.00000000       0.00000000 </v>
    <v>      -6.56431170      11.36972138       0.00000000 </v>
    <v>       0.00000000       0.00000000      26.82809424 </v>
   </varray>
   <i name="volume">   4004.59716953 </i>
   <varray name="rec_basis" >
    <v>       0.07616945       0.04397645       0.00000000 </v>
    <v>       0.00000000       0.08795290       0.00000000 </v>
    <v>       0.00000000       0.00000000       0.03727436 </v>
   </varray>
  </crystal>
  <varray name="positions" >
   <v>       0.08037962       0.17212432       0.44788539 </v>
   <v>      -0.08736201       0.09612747       0.40946634 </v>
   <v>      -0.00189913       0.24856540       0.49911525 </v>
   <v>       0.15828066       0.34289831       0.40341867 </v>
   <v>       0.16562357       0.07770626       0.40824373 </v>
   <v>      -0.00803469      -0.00198833       0.49437035 </v>
   <v>       0.24658651       0.25240794      -0.49956176 </v>
   <v>       0.16619744       0.08511323      -0.45976703 </v>
   <v>       0.08002793       0.41324488       0.45529710 </v>
   <v>      -0.08386072       0.07749775      -0.45484177 </v>
   <v>       0.17295837       0.34236058      -0.45322605 </v>
   <v>      -0.17719383       0.15967117       0.45932758 </v>
   <v>       0.07262645      -0.08620338       0.45254314 </v>
   <v>       0.33738773       0.42552013       0.45185314 </v>
   <v>      -0.17355163      -0.09067646       0.45077948 </v>
   <v>       0.33885890       0.17204479       0.45352799 </v>
   <v>       0.08391777       0.15478641      -0.42087165 </v>
   <v>      -0.09160533       0.32446704       0.41702840 </v>
   <v>       0.41011708       0.34246652       0.40491058 </v>
   <v>       0.24897231       0.49564147      -0.49884851 </v>
   <v>      -0.08912943      -0.17397662       0.40486984 </v>
   <v>       0.24709897       0.00280225      -0.49525184 </v>
   <v>      -0.26190272      -0.00525761      -0.49785393 </v>
   <v>      -0.08137296       0.32589345      -0.45028250 </v>
   <v>      -0.12414423       0.17756390      -0.40988841 </v>
   <v>       0.43198609       0.33588759      -0.45779927 </v>
   <v>      -0.08527607      -0.17148309      -0.45051394 </v>
   <v>       0.32838156       0.18490084      -0.41413912 </v>
   <v>       0.16372537      -0.42485368       0.41231829 </v>
   <v>      -0.15498674      -0.07969277      -0.41066478 </v>
   <v>       0.40624110      -0.42387600       0.40597174 </v>
   <v>       0.09189605       0.43054814      -0.40859709 </v>
   <v>      -0.34469321       0.08292685       0.41995753 </v>
   <v>      -0.25456085      -0.23832509       0.49903086 </v>
   <v>       0.00310371      -0.49338711      -0.49891063 </v>
   <v>      -0.34185874      -0.16286571       0.40322647 </v>
   <v>       0.42296061       0.09409374       0.40564091 </v>
   <v>       0.36186922       0.42637915      -0.40878797 </v>
   <v>       0.49999782       0.25186453       0.49853448 </v>
   <v>       0.07084992      -0.10991622      -0.41075222 </v>
   <v>       0.00000584      -0.24792506      -0.49945495 </v>
   <v>      -0.25381279       0.25873363      -0.49460224 </v>
   <v>      -0.48553077      -0.49028139       0.49665454 </v>
   <v>       0.16899998      -0.18009668       0.41137564 </v>
   <v>      -0.16733992       0.41004587       0.45952660 </v>
   <v>       0.16008876      -0.42304620      -0.45015021 </v>
   <v>      -0.41514139      -0.07936353       0.45442516 </v>
   <v>       0.34278745      -0.33237271       0.45162834 </v>
   <v>      -0.42247098       0.42289218       0.44425142 </v>
   <v>       0.40454817       0.07576394      -0.45115073 </v>
   <v>       0.16512081      -0.16660138      -0.45644190 </v>
   <v>       0.42611332      -0.41123656      -0.45111782 </v>
   <v>       0.31614557      -0.09759914       0.45215058 </v>
   <v>      -0.33647838      -0.16778140      -0.44779314 </v>
   <v>      -0.35116651       0.07631226      -0.45079422 </v>
   <v>      -0.17070595      -0.34217203       0.45303239 </v>
   <v>       0.08362283      -0.33862383       0.45481728 </v>
   <v>      -0.40808860      -0.32591178       0.45350600 </v>
   <v>      -0.41886488       0.17686053       0.45298893 </v>
   <v>      -0.15203703      -0.31650039      -0.41080333 </v>
   <v>       0.34642671      -0.34219306      -0.40604734 </v>
   <v>      -0.31396412       0.35482437       0.40883675 </v>
   <v>      -0.41859053       0.40980056      -0.41412252 </v>
   <v>      -0.16029210       0.42578494      -0.40962814 </v>
   <v>      -0.07627262      -0.40387442       0.41037938 </v>
   <v>       0.48424122      -0.00032556       0.49720334 </v>
   <v>       0.24204351      -0.25305397      -0.49909800 </v>
   <v>      -0.42564545      -0.07520616      -0.41063650 </v>
   <v>       0.49617026      -0.25140401      -0.49413689 </v>
   <v>      -0.32863533      -0.42464221       0.40239249 </v>
   <v>       0.33634268      -0.08912583      -0.40491434 </v>
   <v>      -0.33267602       0.33062740      -0.45309728 </v>
   <v>      -0.06984938      -0.40825885      -0.45142518 </v>
   <v>      -0.32470264      -0.41932392      -0.45740798 </v>
   <v>       0.09850679      -0.32819196      -0.41121740 </v>
   <v>      -0.39876095       0.17672340      -0.40235023 </v>
   <v>       0.41228648      -0.16524154       0.41856045 </v>
   <v>      -0.41566923      -0.33617804      -0.40656662 </v>
   <v>      -0.24780797      -0.49506335      -0.49905521 </v>
   <v>       0.40856657      -0.17773202      -0.44824656 </v>
  </varray>
 </structure>
 <varray name="primitive_index" >
  <v type="int" >        1 </v>
  <v type="int" >       61 </v>
  <v type="int" >       66 </v>
  <v type="int" >       50 </v>
  <v type="int" >       49 </v>
  <v type="int" >       65 </v>
  <v type="int" >       70 </v>
  <v type="int" >       17 </v>
  <v type="int" >        2 </v>
  <v type="int" >       29 </v>
  <v type="int" >       18 </v>
  <v type="int" >       13 </v>
  <v type="int" >        4 </v>
  <v type="int" >        6 </v>
  <v type="int" >       16 </v>
  <v type="int" >        5 </v>
  <v type="int" >       33 </v>
  <v type="int" >       62 </v>
  <v type="int" >       54 </v>
  <v type="int" >       71 </v>
  <v type="int" >       64 </v>
  <v type="int" >       69 </v>
  <v type="int" >       77 </v>
  <v type="int" >       30 </v>
  <v type="int" >       45 </v>
  <v type="int" >       22 </v>
  <v type="int" >       32 </v>
  <v type="int" >       37 </v>
  <v type="int" >       51 </v>
  <v type="int" >       48 </v>
  <v type="int" >       55 </v>
  <v type="int" >       34 </v>
  <v type="int" >       57 </v>
  <v type="int" >       80 </v>
  <v type="int" >       67 </v>
  <v type="int" >       60 </v>
  <v type="int" >       53 </v>
  <v type="int" >       38 </v>
  <v type="int" >       74 </v>
  <v type="int" >       36 </v>
  <v type="int" >       68 </v>
  <v type="int" >       78 </v>
  <v type="int" >       75 </v>
  <v type="int" >       52 </v>
  <v type="int" >       14 </v>
  <v type="int" >       19 </v>
  <v type="int" >       12 </v>
  <v type="int" >        7 </v>
  <v type="int" >       10 </v>
  <v type="int" >       21 </v>
  <v type="int" >       20 </v>
  <v type="int" >       23 </v>
  <v type="int" >        8 </v>
  <v type="int" >       28 </v>
  <v type="int" >       25 </v>
  <v type="int" >       15 </v>
  <v type="int" >        3 </v>
  <v type="int" >       11 </v>
  <v type="int" >        9 </v>
  <v type="int" >       47 </v>
  <v type="int" >       39 </v>
  <v type="int" >       58 </v>
  <v type="int" >       42 </v>
  <v type="int" >       46 </v>
  <v type="int" >       63 </v>
  <v type="int" >       73 </v>
  <v type="int" >       72 </v>
  <v type="int" >       44 </v>
  <v type="int" >       76 </v>
  <v type="int" >       59 </v>
  <v type="int" >       40 </v>
  <v type="int" >       26 </v>
  <v type="int" >       31 </v>
  <v type="int" >       27 </v>
  <v type="int" >       35 </v>
  <v type="int" >       41 </v>
  <v type="int" >       56 </v>
  <v type="int" >       43 </v>
  <v type="int" >       79 </v>
  <v type="int" >       24 </v>
 </varray>
 <kpoints>
  <generation param="Gamma">
   <v type="int" name="divisions">       3        3        1 </v>
   <v name="usershift">      0.00000000       0.00000000       0.00000000 </v>
   <v name="genvec1">      0.33333333       0.00000000       0.00000000 </v>
   <v name="genvec2">      0.00000000       0.33333333       0.00000000 </v>
   <v name="genvec3">      0.00000000       0.00000000       1.00000000 </v>
   <v name="shift">      0.00000000       0.00000000       0.00000000 </v>
  </generation>
  <varray name="kpointlist" >
   <v>       0.00000000       0.00000000       0.00000000 </v>
   <v>       0.33333333      -0.00000000       0.00000000 </v>
   <v>       0.00000000       0.33333333       0.00000000 </v>
   <v>       0.33333333       0.33333333       0.00000000 </v>
   <v>      -0.33333333       0.33333333       0.00000000 </v>
  </varray>
  <varray name="weights" >
   <v>       0.11111111 </v>
   <v>       0.22222222 </v>
   <v>       0.22222222 </v>
   <v>       0.22222222 </v>
   <v>       0.22222222 </v>
  </varray>
 </kpoints>
 <parameters>
  <separator name="general" >
   <i type="string" name="SYSTEM">unknown system</i>
   <i type="logical" name="LCOMPAT"> F  </i>
  </separator>
  <separator name="electronic" >
   <i type="string" name="PREC">anorma</i>
   <i name="ENMAX">    600.00000000</i>
   <i name="ENAUG">    644.87300000</i>
   <i name="EDIFF">      0.00000100</i>
   <i type="int" name="IALGO">    38</i>
   <i type="int" name="IWAVPR">    10</i>
   <i type="int" name="NBANDS">   384</i>
   <i name="NELECT">    640.00000000</i>
   <i type="int" name="TURBO">     0</i>
   <i type="int" name="IRESTART">     0</i>
   <i type="int" name="NREBOOT">     0</i>
   <i type="int" name="NMIN">     0</i>
   <i name="EREF">      0.00000000</i>
   <separator name="electronic smearing" >
    <i type="int" name="ISMEAR">     0</i>
    <i name="SIGMA">      0.05000000</i>
    <i name="KSPACING">      0.25000000</i>
    <i type="logical" name="KGAMMA"> T  </i>
   </separator>
   <separator name="electronic projectors" >
    <i type="logical" name="LREAL"> T  </i>
    <v name="ROPT">     -0.00025000     -0.00025000     -0.00025000</v>
    <i type="int" name="LMAXPAW">  -100</i>
    <i type="int" name="LMAXMIX">     2</i>
    <i type="logical" name="NLSPLINE"> F  </i>
   </separator>
   <separator name="electronic startup" >
    <i type="int" name="ISTART">     0</i>
    <i type="int" name="ICHARG">     2</i>
    <i type="int" name="INIWAV">     1</i>
   </separator>
   <separator name="electronic spin" >
    <i type="int" name="ISPIN">     1</i>
    <i type="logical" name="LNONCOLLINEAR"> F  </i>
    <v name="MAGMOM">      1.00000000      1.00000000      1.00000000      1.00000000      1.00000000      1.00000000      1.00000000      1.00000000      1.00000000      1.00000000      1.00000000      1.00000000      1.00000000      1.00000000      1.00000000      1.00000000      1.00000000      1.00000000      1.00000000      1.00000000
      1.00000000      1.00000000      1.00000000      1.00000000      1.00000000      1.00000000      1.00000000      1.00000000      1.00000000      1.00000000      1.00000000      1.00000000      1.00000000      1.00000000      1.00000000      1.00000000      1.00000000      1.00000000      1.00000000      1.00000000
      1.00000000      1.00000000      1.00000000      1.00000000      1.00000000      1.00000000      1.00000000      1.00000000      1.00000000      1.00000000      1.00000000      1.00000000      1.00000000      1.00000000      1.00000000      1.00000000      1.00000000      1.00000000      1.00000000      1.00000000
      1.00000000      1.00000000      1.00000000      1.00000000      1.00000000      1.00000000      1.00000000      1.00000000      1.00000000      1.00000000      1.00000000      1.00000000      1.00000000      1.00000000      1.00000000      1.00000000      1.00000000      1.00000000      1.00000000      1.00000000
</v>
    <i name="NUPDOWN">     -1.00000000</i>
    <i type="logical" name="LSORBIT"> F  </i>
    <v name="SAXIS">      0.00000000      0.00000000      1.00000000</v>
    <i type="logical" name="LSPIRAL"> F  </i>
    <v name="QSPIRAL">      0.00000000      0.00000000      0.00000000</v>
    <i type="logical" name="LZEROZ"> F  </i>
   </separator>
   <separator name="electronic exchange-correlation" >
    <i type="logical" name="LASPH"> F  </i>
    <i type="logical" name="LMETAGGA"> F  </i>
   </separator>
   <separator name="electronic convergence" >
    <i type="int" name="NELM">    60</i>
    <i type="int" name="NELMDL">    -5</i>
    <i type="int" name="NELMIN">     2</i>
    <i name="ENINI">    600.00000000</i>
    <separator name="electronic convergence detail" >
     <i type="logical" name="LDIAG"> T  </i>
     <i type="logical" name="LSUBROT"> F  </i>
     <i name="WEIMIN">      0.00000000</i>
     <i name="EBREAK">      0.00000000</i>
     <i name="DEPER">      0.30000000</i>
     <i type="int" name="NRMM">     4</i>
     <i name="TIME">      0.40000000</i>
    </separator>
   </separator>
   <separator name="electronic mixer" >
    <i name="AMIX">      0.40000000</i>
    <i name="BMIX">      1.00000000</i>
    <i name="AMIN">      0.10000000</i>
    <i name="AMIX_MAG">      1.60000000</i>
    <i name="BMIX_MAG">      1.00000000</i>
    <separator name="electronic mixer details" >
     <i type="int" name="IMIX">     4</i>
     <i type="logical" name="MIXFIRST"> F  </i>
     <i type="int" name="MAXMIX">   -45</i>
     <i name="WC">    100.00000000</i>
     <i type="int" name="INIMIX">     1</i>
     <i type="int" name="MIXPRE">     1</i>
     <i type="int" name="MREMOVE">     5</i>
    </separator>
   </separator>
   <separator name="electronic dipolcorrection" >
    <i type="logical" name="LDIPOL"> F  </i>
    <i type="logical" name="LMONO"> F  </i>
    <i type="int" name="IDIPOL">     0</i>
    <i name="EPSILON">      1.00000000</i>
    <v name="DIPOL">   -100.00000000   -100.00000000   -100.00000000</v>
    <i name="EFIELD">      0.00000000</i>
   </separator>
  </separator>
  <separator name="grids" >
   <i type="int" name="NGX">   108</i>
   <i type="int" name="NGY">   108</i>
   <i type="int" name="NGZ">   216</i>
   <i type="int" name="NGXF">   216</i>
   <i type="int" name="NGYF">   216</i>
   <i type="int" name="NGZF">   432</i>
   <i type="logical" name="ADDGRID"> T  </i>
  </separator>
  <separator name="ionic" >
   <i type="int" name="NSW">     1</i>
   <i type="int" name="IBRION">    -1</i>
   <i type="int" name="MDALGO">     0</i>
   <i type="int" name="ISIF">     2</i>
   <i name="PSTRESS">      0.00000000</i>
   <i name="EDIFFG">     -0.01000000</i>
   <i type="int" name="NFREE">     0</i>
   <i name="POTIM">      1.00000000</i>
   <i name="SMASS">     -3.00000000</i>
   <i name="SCALEE">      1.00000000</i>
  </separator>
  <separator name="ionic md" >
   <i name="TEBEG">      0.00010000</i>
   <i name="TEEND">      0.00010000</i>
   <i type="int" name="NBLOCK">     1</i>
   <i type="int" name="KBLOCK">     1</i>
   <i type="int" name="NPACO">   256</i>
   <i name="APACO">     16.00000000</i>
  </separator>
  <separator name="symmetry" >
   <i type="int" name="ISYM">     2</i>
   <i name="SYMPREC">      0.00001000</i>
  </separator>
  <separator name="dos" >
   <i type="int" name="LORBIT">     0</i>
   <v name="RWIGS">     -1.00000000     -1.00000000     -1.00000000</v>
   <i type="int" name="NEDOS">   301</i>
   <i name="EMIN">     10.00000000</i>
   <i name="EMAX">    -10.00000000</i>
   <i name="EFERMI">      0.00000000</i>
  </separator>
  <separator name="writing" >
   <i type="int" name="NWRITE">     2</i>
   <i type="logical" name="LWAVE"> F  </i>
   <i type="logical" name="LDOWNSAMPLE"> F  </i>
   <i type="logical" name="LCHARG"> F  </i>
   <i type="logical" name="LPARD"> F  </i>
   <i type="logical" name="LVTOT"> F  </i>
   <i type="logical" name="LVHAR"> F  </i>
   <i type="logical" name="LELF"> F  </i>
   <i type="logical" name="LOPTICS"> F  </i>
   <v name="STM">      0.00000000      0.00000000      0.00000000      0.00000000      0.00000000      0.00000000      0.00000000</v>
  </separator>
  <separator name="performance" >
   <i type="int" name="NPAR">     4</i>
   <i type="int" name="NSIM">     4</i>
   <i type="int" name="NBLK">    -1</i>
   <i type="logical" name="LPLANE"> T  </i>
   <i type="logical" name="LSCALAPACK"> F  </i>
   <i type="logical" name="LSCAAWARE"> F  </i>
   <i type="logical" name="LSCALU"> F  </i>
   <i type="logical" name="LASYNC"> F  </i>
   <i type="logical" name="LORBITALREAL"> F  </i>
  </separator>
  <separator name="miscellaneous" >
   <i type="int" name="IDIOT">     3</i>
   <i type="int" name="ISPECIAL">     0</i>
   <i type="logical" name="LMUSIC"> F  </i>
   <v name="POMASS">     44.95600000     18.99800000     12.01100000</v>
   <v name="DARWINR">      0.00000000      0.00000000      0.00000000</v>
   <v name="DARWINV">      1.00000000      1.00000000      1.00000000</v>
   <i type="logical" name="LCORR"> T  </i>
  </separator>
  <i type="logical" name="GGA_COMPAT"> T  </i>
  <i type="logical" name="LBERRY"> F  </i>
  <i type="int" name="ICORELEVEL">     0</i>
  <i type="logical" name="LDAU"> F  </i>
  <i type="int" name="I_CONSTRAINED_M">     0</i>
  <separator name="electronic exchange-correlation" >
   <i type="string" name="GGA">--</i>
   <i type="int" name="VOSKOWN">     0</i>
   <i type="logical" name="LHFCALC"> F  </i>
   <i type="string" name="PRECFOCK"></i>
   <i type="logical" name="LSYMGRAD"> F  </i>
   <i type="logical" name="LHFONE"> F  </i>
   <i type="logical" name="LRHFCALC"> F  </i>
   <i type="logical" name="LTHOMAS"> F  </i>
   <i type="logical" name="LMODELHF"> F  </i>
   <i name="ENCUT4O">     -1.00000000</i>
   <i type="int" name="EXXOEP">     0</i>
   <i type="int" name="FOURORBIT">     0</i>
   <i name="AEXX">      0.00000000</i>
   <i name="HFALPHA">      0.00000000</i>
   <i name="MCALPHA">      0.00000000</i>
   <i name="ALDAX">      1.00000000</i>
   <i name="AGGAX">      1.00000000</i>
   <i name="ALDAC">      1.00000000</i>
   <i name="AGGAC">      1.00000000</i>
   <i type="int" name="NKREDX">     1</i>
   <i type="int" name="NKREDY">     1</i>
   <i type="int" name="NKREDZ">     1</i>
   <i type="logical" name="SHIFTRED"> F  </i>
   <i type="logical" name="ODDONLY"> F  </i>
   <i type="logical" name="EVENONLY"> F  </i>
   <i type="int" name="LMAXFOCK">     0</i>
   <i type="int" name="NMAXFOCKAE">     0</i>
   <i type="logical" name="LFOCKAEDFT"> F  </i>
   <i name="HFSCREEN">      0.00000000</i>
   <i name="HFSCREENC">      0.00000000</i>
   <i type="int" name="NBANDSGWLOW">     0</i>
  </separator>
  <separator name="vdW DFT" >
   <i type="logical" name="LUSE_VDW"> F  </i>
   <i name="Zab_VDW">     -0.84910000</i>
   <i name="PARAM1">      0.12340000</i>
   <i name="PARAM2">      1.00000000</i>
   <i name="PARAM3">      0.00000000</i>
  </separator>
  <separator name="model GW" >
   <i type="int" name="MODEL_GW">     0</i>
   <i name="MODEL_EPS0">     30.03447877</i>
   <i name="MODEL_ALPHA">      1.00000000</i>
  </separator>
  <separator name="linear response parameters" >
   <i type="logical" name="LEPSILON"> F  </i>
   <i type="logical" name="LRPA"> F  </i>
   <i type="logical" name="LNABLA"> F  </i>
   <i type="logical" name="LVEL"> F  </i>
   <i type="int" name="KINTER">     0</i>
   <i name="CSHIFT">      0.10000000</i>
   <i name="OMEGAMAX">     -1.00000000</i>
   <i name="DEG_THRESHOLD">      0.00200000</i>
   <i name="RTIME">     -0.10000000</i>
   <i name="WPLASMAI">      0.00000000</i>
   <v name="DFIELD">      0.00000000      0.00000000      0.00000000</v>
   <v name="WPLASMA">      0.00000000      0.00000000      0.00000000      0.00000000      0.00000000      0.00000000      0.00000000      0.00000000      0.00000000</v>
  </separator>
  <separator name="orbital magnetization" >
   <i type="logical" name="NUCIND"> F  </i>
   <v name="MAGPOS">      0.00000000      0.00000000      0.00000000</v>
   <i type="logical" name="LNICSALL"> T  </i>
   <i type="logical" name="ORBITALMAG"> F  </i>
   <i type="logical" name="LMAGBLOCH"> F  </i>
   <i type="logical" name="LCHIMAG"> F  </i>
   <i type="logical" name="LGAUGE"> T  </i>
   <i type="int" name="MAGATOM">     0</i>
   <v name="MAGDIPOL">      0.00000000      0.00000000      0.00000000</v>
   <v name="AVECCONST">      0.00000000      0.00000000      0.00000000</v>
  </separator>
  <separator name="response functions" >
   <i type="logical" name="LADDER"> F  </i>
   <i type="logical" name="LRPAFORCE"> F  </i>
   <i type="logical" name="LFXC"> F  </i>
   <i type="logical" name="LHARTREE"> T  </i>
   <i type="int" name="IBSE">     0</i>
   <v type="int" name="KPOINT">    -1     0     0     0</v>
   <i type="logical" name="LTCTE"> F  </i>
   <i type="logical" name="LTETE"> F  </i>
   <i type="logical" name="LTRIPLET"> F  </i>
   <i type="logical" name="LFXCEPS"> F  </i>
   <i type="logical" name="LFXHEG"> F  </i>
   <i type="int" name="NATURALO">     2</i>
   <i type="logical" name="L2ORDER"> F  </i>
   <i type="logical" name="LMP2LT"> F  </i>
   <i type="logical" name="LUSEW"> F  </i>
   <i name="ENCUTGW">     -2.00000000</i>
   <i name="ENCUTGWSOFT">     -2.00000000</i>
   <i name="ENCUTLF">     -1.00000000</i>
   <i type="int" name="LMAXMP2">    -1</i>
   <i name="SCISSOR">      0.00000000</i>
   <i type="int" name="NOMEGA">     0</i>
   <i type="int" name="NOMEGAR">     0</i>
   <i type="int" name="NBANDSGW">    -1</i>
   <i type="int" name="NBANDSO">    -1</i>
   <i type="int" name="NBANDSV">    -1</i>
   <i type="int" name="NELM">     1</i>
   <i type="int" name="NELMHF">     1</i>
   <i type="int" name="DIM">     3</i>
   <i type="int" name="ANTIRES">     0</i>
   <i name="OMEGAMAX">    -30.00000000</i>
   <i name="OMEGAMIN">    -30.00000000</i>
   <i name="OMEGATL">   -200.00000000</i>
   <i type="int" name="OMEGAGRID">   140</i>
   <i name="CSHIFT">     -0.10000000</i>
   <i type="logical" name="SELFENERGY"> F  </i>
   <i type="logical" name="LSPECTRAL"> F  </i>
   <i type="logical" name="LSPECTRALGW"> F  </i>
   <i type="logical" name="LSINGLES"> F  </i>
   <i type="logical" name="LFERMIGW"> F  </i>
   <i type="logical" name="ODDONLYGW"> F  </i>
   <i type="logical" name="EVENONLYGW"> F  </i>
   <i type="int" name="NKREDLFX">     1</i>
   <i type="int" name="NKREDLFY">     1</i>
   <i type="int" name="NKREDLFZ">     1</i>
   <i type="int" name="MAXMEM">  2800</i>
   <i type="int" name="TELESCOPE">     0</i>
   <i type="int" name="TAUPAR">     1</i>
   <i type="int" name="OMEGAPAR">    -1</i>
   <i name="LAMBDA">      1.00000000</i>
  </separator>
  <separator name="External order field" >
   <i name="OFIELD_KAPPA">      0.00000000</i>
   <v name="OFIELD_K">      0.00000000      0.00000000      0.00000000</v>
   <i name="OFIELD_Q6_NEAR">      0.00000000</i>
   <i name="OFIELD_Q6_FAR">      0.00000000</i>
   <i name="OFIELD_A">      0.00000000</i>
  </separator>
 </parameters>
 <atominfo>
  <atoms>      80 </atoms>
  <types>       3 </types>
  <array name="atoms" >
   <dimension dim="1">ion</dimension>
   <field type="string">element</field>
   <field type="int">atomtype</field>
   <set>
    <rc><c>Sc</c><c>   1</c></rc>
    <rc><c>Sc</c><c>   1</c></rc>
    <rc><c>Sc</c><c>   1</c></rc>
    <rc><c>Sc</c><c>   1</c></rc>
    <rc><c>Sc</c><c>   1</c></rc>
    <rc><c>Sc</c><c>   1</c></rc>
    <rc><c>Sc</c><c>   1</c></rc>
    <rc><c>Sc</c><c>   1</c></rc>
    <rc><c>Sc</c><c>   1</c></rc>
    <rc><c>Sc</c><c>   1</c></rc>
    <rc><c>Sc</c><c>   1</c></rc>
    <rc><c>Sc</c><c>   1</c></rc>
    <rc><c>Sc</c><c>   1</c></rc>
    <rc><c>Sc</c><c>   1</c></rc>
    <rc><c>Sc</c><c>   1</c></rc>
    <rc><c>Sc</c><c>   1</c></rc>
    <rc><c>Sc</c><c>   1</c></rc>
    <rc><c>Sc</c><c>   1</c></rc>
    <rc><c>Sc</c><c>   1</c></rc>
    <rc><c>Sc</c><c>   1</c></rc>
    <rc><c>Sc</c><c>   1</c></rc>
    <rc><c>Sc</c><c>   1</c></rc>
    <rc><c>Sc</c><c>   1</c></rc>
    <rc><c>Sc</c><c>   1</c></rc>
    <rc><c>Sc</c><c>   1</c></rc>
    <rc><c>Sc</c><c>   1</c></rc>
    <rc><c>Sc</c><c>   1</c></rc>
    <rc><c>Sc</c><c>   1</c></rc>
    <rc><c>Sc</c><c>   1</c></rc>
    <rc><c>Sc</c><c>   1</c></rc>
    <rc><c>Sc</c><c>   1</c></rc>
    <rc><c>Sc</c><c>   1</c></rc>
    <rc><c>F </c><c>   2</c></rc>
    <rc><c>F </c><c>   2</c></rc>
    <rc><c>F </c><c>   2</c></rc>
    <rc><c>F </c><c>   2</c></rc>
    <rc><c>F </c><c>   2</c></rc>
    <rc><c>F </c><c>   2</c></rc>
    <rc><c>F </c><c>   2</c></rc>
    <rc><c>F </c><c>   2</c></rc>
    <rc><c>F </c><c>   2</c></rc>
    <rc><c>F </c><c>   2</c></rc>
    <rc><c>F </c><c>   2</c></rc>
    <rc><c>F </c><c>   2</c></rc>
    <rc><c>F </c><c>   2</c></rc>
    <rc><c>F </c><c>   2</c></rc>
    <rc><c>F </c><c>   2</c></rc>
    <rc><c>F </c><c>   2</c></rc>
    <rc><c>F </c><c>   2</c></rc>
    <rc><c>F </c><c>   2</c></rc>
    <rc><c>F </c><c>   2</c></rc>
    <rc><c>F </c><c>   2</c></rc>
    <rc><c>F </c><c>   2</c></rc>
    <rc><c>F </c><c>   2</c></rc>
    <rc><c>F </c><c>   2</c></rc>
    <rc><c>F </c><c>   2</c></rc>
    <rc><c>F </c><c>   2</c></rc>
    <rc><c>F </c><c>   2</c></rc>
    <rc><c>F </c><c>   2</c></rc>
    <rc><c>F </c><c>   2</c></rc>
    <rc><c>F </c><c>   2</c></rc>
    <rc><c>F </c><c>   2</c></rc>
    <rc><c>F </c><c>   2</c></rc>
    <rc><c>F </c><c>   2</c></rc>
    <rc><c>C </c><c>   3</c></rc>
    <rc><c>C </c><c>   3</c></rc>
    <rc><c>C </c><c>   3</c></rc>
    <rc><c>C </c><c>   3</c></rc>
    <rc><c>C </c><c>   3</c></rc>
    <rc><c>C </c><c>   3</c></rc>
    <rc><c>C </c><c>   3</c></rc>
    <rc><c>C </c><c>   3</c></rc>
    <rc><c>C </c><c>   3</c></rc>
    <rc><c>C </c><c>   3</c></rc>
    <rc><c>C </c><c>   3</c></rc>
    <rc><c>C </c><c>   3</c></rc>
    <rc><c>C </c><c>   3</c></rc>
    <rc><c>C </c><c>   3</c></rc>
    <rc><c>C </c><c>   3</c></rc>
    <rc><c>C </c><c>   3</c></rc>
   </set>
  </array>
  <array name="atomtypes" >
   <dimension dim="1">type</dimension>
   <field type="int">atomspertype</field>
   <field type="string">element</field>
   <field>mass</field>
   <field>valence</field>
   <field type="string">pseudopotential</field>
   <set>
    <rc><c>  32</c><c>Sc</c><c>     44.95600000</c><c>     11.00000000</c><c>  PAW_PBE Sc_sv 07Sep2000               </c></rc>
    <rc><c>  32</c><c>F </c><c>     18.99800000</c><c>      7.00000000</c><c>  PAW_PBE F 08Apr2002                   </c></rc>
    <rc><c>  16</c><c>C </c><c>     12.01100000</c><c>      4.00000000</c><c>  PAW_PBE C 08Apr2002                   </c></rc>
   </set>
  </array>
 </atominfo>
 <structure name="initialpos" >
  <crystal>
   <varray name="basis" >
    <v>      13.12862340       0.00000000       0.00000000 </v>
    <v>      -6.56431170      11.36972138       0.00000000 </v>
    <v>       0.00000000       0.00000000      26.82809424 </v>
   </varray>
   <i name="volume">   4004.59716953 </i>
   <varray name="rec_basis" >
    <v>       0.07616945       0.04397645       0.00000000 </v>
    <v>       0.00000000       0.08795290       0.00000000 </v>
    <v>       0.00000000       0.00000000       0.03727436 </v>
   </varray>
  </crystal>
  <varray name="positions" >
   <v>       0.08037962       0.17212432       0.44788539 </v>
   <v>       0.08002793       0.41324488       0.45529710 </v>
   <v>       0.08362283       0.66137617       0.45481728 </v>
   <v>       0.07262645       0.91379662       0.45254314 </v>
   <v>       0.33885890       0.17204479       0.45352799 </v>
   <v>       0.33738773       0.42552013       0.45185314 </v>
   <v>       0.34278745       0.66762729       0.45162834 </v>
   <v>       0.31614557       0.90240086       0.45215058 </v>
   <v>       0.58113512       0.17686053       0.45298893 </v>
   <v>       0.57752902       0.42289218       0.44425142 </v>
   <v>       0.59191140       0.67408822       0.45350600 </v>
   <v>       0.58485861       0.92063647       0.45442516 </v>
   <v>       0.82280617       0.15967117       0.45932758 </v>
   <v>       0.83266008       0.41004587       0.45952660 </v>
   <v>       0.82929405       0.65782797       0.45303239 </v>
   <v>       0.82644837       0.90932354       0.45077948 </v>
   <v>       0.16619744       0.08511323       0.54023297 </v>
   <v>       0.17295837       0.34236058       0.54677395 </v>
   <v>       0.16008876       0.57695380       0.54984979 </v>
   <v>       0.16512081       0.83339862       0.54355810 </v>
   <v>       0.40454817       0.07576394       0.54884927 </v>
   <v>       0.43198609       0.33588759       0.54220073 </v>
   <v>       0.42611332       0.58876344       0.54888218 </v>
   <v>       0.40856657       0.82226798       0.55175344 </v>
   <v>       0.64883349       0.07631226       0.54920578 </v>
   <v>       0.66732398       0.33062740       0.54690272 </v>
   <v>       0.67529736       0.58067608       0.54259202 </v>
   <v>       0.66352162       0.83221860       0.55220686 </v>
   <v>       0.91613928       0.07749775       0.54515823 </v>
   <v>       0.91862704       0.32589345       0.54971750 </v>
   <v>       0.93015062       0.59174115       0.54857482 </v>
   <v>       0.91472393       0.82851691       0.54948606 </v>
   <v>       0.08391777       0.15478641       0.57912835 </v>
   <v>       0.09189605       0.43054814       0.59140291 </v>
   <v>       0.09850679       0.67180804       0.58878260 </v>
   <v>       0.07084992       0.89008378       0.58924778 </v>
   <v>       0.32838156       0.18490084       0.58586088 </v>
   <v>       0.36186922       0.42637915       0.59121203 </v>
   <v>       0.34642671       0.65780694       0.59395266 </v>
   <v>       0.33634268       0.91087417       0.59508566 </v>
   <v>       0.60123905       0.17672340       0.59764977 </v>
   <v>       0.58140947       0.40980056       0.58587748 </v>
   <v>       0.58433077       0.66382196       0.59343338 </v>
   <v>       0.57435455       0.92479384       0.58936350 </v>
   <v>       0.87585577       0.17756390       0.59011159 </v>
   <v>       0.83970790       0.42578494       0.59037186 </v>
   <v>       0.84796297       0.68349961       0.58919667 </v>
   <v>       0.84501326       0.92030723       0.58933522 </v>
   <v>       0.16562357       0.07770626       0.40824373 </v>
   <v>       0.15828066       0.34289831       0.40341867 </v>
   <v>       0.16372537       0.57514632       0.41231829 </v>
   <v>       0.16899998       0.81990332       0.41137564 </v>
   <v>       0.42296061       0.09409374       0.40564091 </v>
   <v>       0.41011708       0.34246652       0.40491058 </v>
   <v>       0.40624110       0.57612400       0.40597174 </v>
   <v>       0.41228648       0.83475846       0.41856045 </v>
   <v>       0.65530679       0.08292685       0.41995753 </v>
   <v>       0.68603588       0.35482437       0.40883675 </v>
   <v>       0.67136467       0.57535779       0.40239249 </v>
   <v>       0.65814126       0.83713429       0.40322647 </v>
   <v>       0.91263799       0.09612747       0.40946634 </v>
   <v>       0.90839467       0.32446704       0.41702840 </v>
   <v>       0.92372738       0.59612558       0.41037938 </v>
   <v>       0.91087057       0.82602338       0.40486984 </v>
   <v>       0.99196531       0.99801167       0.49437035 </v>
   <v>       0.99810087       0.24856540       0.49911525 </v>
   <v>       0.00310371       0.50661289       0.50108937 </v>
   <v>       0.00000584       0.75207494       0.50054505 </v>
   <v>       0.24709897       0.00280225       0.50474816 </v>
   <v>       0.24658651       0.25240794       0.50043824 </v>
   <v>       0.24897231       0.49564147       0.50115149 </v>
   <v>       0.24204351       0.74694603       0.50090200 </v>
   <v>       0.48424122       0.99967444       0.49720334 </v>
   <v>       0.49999782       0.25186453       0.49853448 </v>
   <v>       0.51446923       0.50971861       0.49665454 </v>
   <v>       0.49617026       0.74859599       0.50586311 </v>
   <v>       0.73809728       0.99474239       0.50214607 </v>
   <v>       0.74618721       0.25873363       0.50539776 </v>
   <v>       0.75219203       0.50493665       0.50094479 </v>
   <v>       0.74543915       0.76167491       0.49903086 </v>
  </varray>
  <varray name="velocities" >
   <v>       0.00000000       0.00000000       0.00000000 </v>
   <v>       0.00000000       0.00000000       0.00000000 </v>
   <v>       0.00000000       0.00000000       0.00000000 </v>
   <v>       0.00000000       0.00000000       0.00000000 </v>
   <v>       0.00000000       0.00000000       0.00000000 </v>
   <v>       0.00000000       0.00000000       0.00000000 </v>
   <v>       0.00000000       0.00000000       0.00000000 </v>
   <v>       0.00000000       0.00000000       0.00000000 </v>
   <v>       0.00000000       0.00000000       0.00000000 </v>
   <v>       0.00000000       0.00000000       0.00000000 </v>
   <v>       0.00000000       0.00000000       0.00000000 </v>
   <v>       0.00000000       0.00000000       0.00000000 </v>
   <v>       0.00000000       0.00000000       0.00000000 </v>
   <v>       0.00000000       0.00000000       0.00000000 </v>
   <v>       0.00000000       0.00000000       0.00000000 </v>
   <v>       0.00000000       0.00000000       0.00000000 </v>
   <v>       0.00000000       0.00000000       0.00000000 </v>
   <v>       0.00000000       0.00000000       0.00000000 </v>
   <v>       0.00000000       0.00000000       0.00000000 </v>
   <v>       0.00000000       0.00000000       0.00000000 </v>
   <v>       0.00000000       0.00000000       0.00000000 </v>
   <v>       0.00000000       0.00000000       0.00000000 </v>
   <v>       0.00000000       0.00000000       0.00000000 </v>
   <v>       0.00000000       0.00000000       0.00000000 </v>
   <v>       0.00000000       0.00000000       0.00000000 </v>
   <v>       0.00000000       0.00000000       0.00000000 </v>
   <v>       0.00000000       0.00000000       0.00000000 </v>
   <v>       0.00000000       0.00000000       0.00000000 </v>
   <v>       0.00000000       0.00000000       0.00000000 </v>
   <v>       0.00000000       0.00000000       0.00000000 </v>
   <v>       0.00000000       0.00000000       0.00000000 </v>
   <v>       0.00000000       0.00000000       0.00000000 </v>
   <v>       0.00000000       0.00000000       0.00000000 </v>
   <v>       0.00000000       0.00000000       0.00000000 </v>
   <v>       0.00000000       0.00000000       0.00000000 </v>
   <v>       0.00000000       0.00000000       0.00000000 </v>
   <v>       0.00000000       0.00000000       0.00000000 </v>
   <v>       0.00000000       0.00000000       0.00000000 </v>
   <v>       0.00000000       0.00000000       0.00000000 </v>
   <v>       0.00000000       0.00000000       0.00000000 </v>
   <v>       0.00000000       0.00000000       0.00000000 </v>
   <v>       0.00000000       0.00000000       0.00000000 </v>
   <v>       0.00000000       0.00000000       0.00000000 </v>
   <v>       0.00000000       0.00000000       0.00000000 </v>
   <v>       0.00000000       0.00000000       0.00000000 </v>
   <v>       0.00000000       0.00000000       0.00000000 </v>
   <v>       0.00000000       0.00000000       0.00000000 </v>
   <v>       0.00000000       0.00000000       0.00000000 </v>
   <v>       0.00000000       0.00000000       0.00000000 </v>
   <v>       0.00000000       0.00000000       0.00000000 </v>
   <v>       0.00000000       0.00000000       0.00000000 </v>
   <v>       0.00000000       0.00000000       0.00000000 </v>
   <v>       0.00000000       0.00000000       0.00000000 </v>
   <v>       0.00000000       0.00000000       0.00000000 </v>
   <v>       0.00000000       0.00000000       0.00000000 </v>
   <v>       0.00000000       0.00000000       0.00000000 </v>
   <v>       0.00000000       0.00000000       0.00000000 </v>
   <v>       0.00000000       0.00000000       0.00000000 </v>
   <v>       0.00000000       0.00000000       0.00000000 </v>
   <v>       0.00000000       0.00000000       0.00000000 </v>
   <v>       0.00000000       0.00000000       0.00000000 </v>
   <v>       0.00000000       0.00000000       0.00000000 </v>
   <v>       0.00000000       0.00000000       0.00000000 </v>
   <v>       0.00000000       0.00000000       0.00000000 </v>
   <v>       0.00000000       0.00000000       0.00000000 </v>
   <v>       0.00000000       0.00000000       0.00000000 </v>
   <v>       0.00000000       0.00000000       0.00000000 </v>
   <v>       0.00000000       0.00000000       0.00000000 </v>
   <v>       0.00000000       0.00000000       0.00000000 </v>
   <v>       0.00000000       0.00000000       0.00000000 </v>
   <v>       0.00000000       0.00000000       0.00000000 </v>
   <v>       0.00000000       0.00000000       0.00000000 </v>
   <v>       0.00000000       0.00000000       0.00000000 </v>
   <v>       0.00000000       0.00000000       0.00000000 </v>
   <v>       0.00000000       0.00000000       0.00000000 </v>
   <v>       0.00000000       0.00000000       0.00000000 </v>
   <v>       0.00000000       0.00000000       0.00000000 </v>
   <v>       0.00000000       0.00000000       0.00000000 </v>
   <v>       0.00000000       0.00000000       0.00000000 </v>
   <v>       0.00000000       0.00000000       0.00000000 </v>
  </varray>
 </structure>
 <calculation>
  <scstep>
   <time name="dav">   46.17   46.18</time>
   <time name="total">   47.06   47.07</time>
   <energy>
    <i name="alphaZ">    871.83850952 </i>
    <i name="ewald"> 287611.55721385 </i>
    <i name="hartreedc">-341934.78192547 </i>
    <i name="XCdc">   3044.38791539 </i>
    <i name="pawpsdc">  50525.51240023 </i>
    <i name="pawaedc"> -50422.77561733 </i>
    <i name="eentropy">     -0.08113070 </i>
    <i name="bandstr">   -198.83010356 </i>
    <i name="atom">  64207.43592568 </i>
    <i name="e_fr_energy">  13704.26318762 </i>
    <i name="e_wo_entrp">  13704.34431831 </i>
    <i name="e_0_energy">  13704.30375296 </i>
   </energy>
  </scstep>
  <scstep>
   <time name="dav">   49.56   49.56</time>
   <time name="total">   49.56   49.56</time>
   <energy>
    <i name="e_fr_energy">   2495.07203936 </i>
    <i name="e_wo_entrp">   2495.13330246 </i>
    <i name="e_0_energy">   2495.10267091 </i>
   </energy>
  </scstep>
  <scstep>
   <time name="dav">   67.52   67.53</time>
   <time name="total">   67.52   67.53</time>
   <energy>
    <i name="e_fr_energy">   -375.64975338 </i>
    <i name="e_wo_entrp">   -375.64975338 </i>
    <i name="e_0_energy">   -375.64975338 </i>
   </energy>
  </scstep>
  <scstep>
   <time name="dav">   61.32   61.33</time>
   <time name="total">   61.32   61.33</time>
   <energy>
    <i name="e_fr_energy">   -737.75105038 </i>
    <i name="e_wo_entrp">   -737.75105038 </i>
    <i name="e_0_energy">   -737.75105038 </i>
   </energy>
  </scstep>
  <scstep>
   <time name="dav">   61.51   61.52</time>
   <time name="total">   65.10   65.11</time>
   <energy>
    <i name="e_fr_energy">   -752.37700343 </i>
    <i name="e_wo_entrp">   -752.37700343 </i>
    <i name="e_0_energy">   -752.37700343 </i>
   </energy>
  </scstep>
  <scstep>
   <time name="dav">   58.88   58.88</time>
   <time name="total">   63.24   63.26</time>
   <energy>
    <i name="e_fr_energy">   -596.32114114 </i>
    <i name="e_wo_entrp">   -596.32114114 </i>
    <i name="e_0_energy">   -596.32114114 </i>
   </energy>
  </scstep>
  <scstep>
   <time name="dav">   60.31   60.31</time>
   <time name="total">   64.79   64.80</time>
   <energy>
    <i name="e_fr_energy">   -596.45300723 </i>
    <i name="e_wo_entrp">   -596.45300723 </i>
    <i name="e_0_energy">   -596.45300723 </i>
   </energy>
  </scstep>
  <scstep>
   <time name="dav">   57.36   57.36</time>
   <time name="total">   61.80   61.81</time>
   <energy>
    <i name="e_fr_energy">   -594.91403280 </i>
    <i name="e_wo_entrp">   -594.91403280 </i>
    <i name="e_0_energy">   -594.91403280 </i>
   </energy>
  </scstep>
  <scstep>
   <time name="dav">   56.81   56.81</time>
   <time name="total">   61.19   61.20</time>
   <energy>
    <i name="e_fr_energy">   -594.40870875 </i>
    <i name="e_wo_entrp">   -594.40870875 </i>
    <i name="e_0_energy">   -594.40870875 </i>
   </energy>
  </scstep>
  <scstep>
   <time name="dav">   60.28   60.29</time>
   <time name="total">   64.69   64.70</time>
   <energy>
    <i name="e_fr_energy">   -594.37419868 </i>
    <i name="e_wo_entrp">   -594.37419868 </i>
    <i name="e_0_energy">   -594.37419868 </i>
   </energy>
  </scstep>
  <scstep>
   <time name="dav">   57.19   57.19</time>
   <time name="total">   61.58   61.59</time>
   <energy>
    <i name="e_fr_energy">   -594.25618287 </i>
    <i name="e_wo_entrp">   -594.25618287 </i>
    <i name="e_0_energy">   -594.25618287 </i>
   </energy>
  </scstep>
  <scstep>
   <time name="dav">   60.80   60.80</time>
   <time name="total">   65.15   65.16</time>
   <energy>
    <i name="e_fr_energy">   -594.22656951 </i>
    <i name="e_wo_entrp">   -594.22656951 </i>
    <i name="e_0_energy">   -594.22656951 </i>
   </energy>
  </scstep>
  <scstep>
   <time name="dav">   59.54   59.55</time>
   <time name="total">   63.91   63.93</time>
   <energy>
    <i name="e_fr_energy">   -594.21811689 </i>
    <i name="e_wo_entrp">   -594.21811689 </i>
    <i name="e_0_energy">   -594.21811689 </i>
   </energy>
  </scstep>
  <scstep>
   <time name="dav">   59.64   59.64</time>
   <time name="total">   64.09   64.10</time>
   <energy>
    <i name="e_fr_energy">   -594.21339156 </i>
    <i name="e_wo_entrp">   -594.21339156 </i>
    <i name="e_0_energy">   -594.21339156 </i>
   </energy>
  </scstep>
  <scstep>
   <time name="dav">   57.08   57.08</time>
   <time name="total">   61.45   61.47</time>
   <energy>
    <i name="e_fr_energy">   -594.21934344 </i>
    <i name="e_wo_entrp">   -594.21934344 </i>
    <i name="e_0_energy">   -594.21934344 </i>
   </energy>
  </scstep>
  <scstep>
   <time name="dav">   58.54   58.54</time>
   <time name="total">   62.97   62.98</time>
   <energy>
    <i name="e_fr_energy">   -594.22225104 </i>
    <i name="e_wo_entrp">   -594.22225104 </i>
    <i name="e_0_energy">   -594.22225104 </i>
   </energy>
  </scstep>
  <scstep>
   <time name="dav">   60.48   60.48</time>
   <time name="total">   64.91   64.92</time>
   <energy>
    <i name="e_fr_energy">   -594.22688822 </i>
    <i name="e_wo_entrp">   -594.22688822 </i>
    <i name="e_0_energy">   -594.22688822 </i>
   </energy>
  </scstep>
  <scstep>
   <time name="dav">   55.86   55.86</time>
   <time name="total">   60.28   60.30</time>
   <energy>
    <i name="e_fr_energy">   -594.23099607 </i>
    <i name="e_wo_entrp">   -594.23099607 </i>
    <i name="e_0_energy">   -594.23099607 </i>
   </energy>
  </scstep>
  <scstep>
   <time name="dav">   57.15   57.16</time>
   <time name="total">   61.51   61.53</time>
   <energy>
    <i name="e_fr_energy">   -594.23270788 </i>
    <i name="e_wo_entrp">   -594.23270788 </i>
    <i name="e_0_energy">   -594.23270788 </i>
   </energy>
  </scstep>
  <scstep>
   <time name="dav">   55.40   55.40</time>
   <time name="total">   59.77   59.78</time>
   <energy>
    <i name="e_fr_energy">   -594.23548924 </i>
    <i name="e_wo_entrp">   -594.23548924 </i>
    <i name="e_0_energy">   -594.23548924 </i>
   </energy>
  </scstep>
  <scstep>
   <time name="dav">   50.59   50.59</time>
   <time name="total">   54.96   54.97</time>
   <energy>
    <i name="e_fr_energy">   -594.23817659 </i>
    <i name="e_wo_entrp">   -594.23817659 </i>
    <i name="e_0_energy">   -594.23817659 </i>
   </energy>
  </scstep>
  <scstep>
   <time name="dav">   49.02   49.02</time>
   <time name="total">   53.41   53.42</time>
   <energy>
    <i name="e_fr_energy">   -594.23944285 </i>
    <i name="e_wo_entrp">   -594.23944285 </i>
    <i name="e_0_energy">   -594.23944285 </i>
   </energy>
  </scstep>
  <scstep>
   <time name="dav">   51.39   51.39</time>
   <time name="total">   55.73   55.74</time>
   <energy>
    <i name="e_fr_energy">   -594.23997538 </i>
    <i name="e_wo_entrp">   -594.23997538 </i>
    <i name="e_0_energy">   -594.23997538 </i>
   </energy>
  </scstep>
  <scstep>
   <time name="dav">   46.46   46.46</time>
   <time name="total">   50.90   50.91</time>
   <energy>
    <i name="e_fr_energy">   -594.24032328 </i>
    <i name="e_wo_entrp">   -594.24032328 </i>
    <i name="e_0_energy">   -594.24032328 </i>
   </energy>
  </scstep>
  <scstep>
   <time name="dav">   43.89   43.90</time>
   <time name="total">   48.32   48.33</time>
   <energy>
    <i name="e_fr_energy">   -594.24048680 </i>
    <i name="e_wo_entrp">   -594.24048680 </i>
    <i name="e_0_energy">   -594.24048680 </i>
   </energy>
  </scstep>
  <scstep>
   <time name="dav">   40.17   40.17</time>
   <time name="total">   44.63   44.64</time>
   <energy>
    <i name="e_fr_energy">   -594.24059507 </i>
    <i name="e_wo_entrp">   -594.24059507 </i>
    <i name="e_0_energy">   -594.24059507 </i>
   </energy>
  </scstep>
  <scstep>
   <time name="dav">   33.35   33.36</time>
   <time name="total">   37.72   37.73</time>
   <energy>
    <i name="e_fr_energy">   -594.24062315 </i>
    <i name="e_wo_entrp">   -594.24062315 </i>
    <i name="e_0_energy">   -594.24062315 </i>
   </energy>
  </scstep>
  <scstep>
   <time name="dav">   35.34   35.34</time>
   <time name="total">   39.70   39.72</time>
   <energy>
    <i name="e_fr_energy">   -594.24064811 </i>
    <i name="e_wo_entrp">   -594.24064811 </i>
    <i name="e_0_energy">   -594.24064811 </i>
   </energy>
  </scstep>
  <scstep>
   <time name="dav">   32.75   32.76</time>
   <time name="total">   37.28   37.29</time>
   <energy>
    <i name="e_fr_energy">   -594.24065528 </i>
    <i name="e_wo_entrp">   -594.24065528 </i>
    <i name="e_0_energy">   -594.24065528 </i>
   </energy>
  </scstep>
  <scstep>
   <time name="dav">   33.02   33.02</time>
   <time name="total">   37.49   37.51</time>
   <energy>
    <i name="e_fr_energy">   -594.24066292 </i>
    <i name="e_wo_entrp">   -594.24066292 </i>
    <i name="e_0_energy">   -594.24066292 </i>
   </energy>
  </scstep>
  <scstep>
   <time name="dav">   32.15   32.15</time>
   <time name="total">   36.59   36.60</time>
   <energy>
    <i name="e_fr_energy">   -594.24066447 </i>
    <i name="e_wo_entrp">   -594.24066447 </i>
    <i name="e_0_energy">   -594.24066447 </i>
   </energy>
  </scstep>
  <scstep>
   <time name="dav">   32.47   32.47</time>
   <time name="total">   36.88   36.89</time>
   <energy>
    <i name="e_fr_energy">   -594.24066551 </i>
    <i name="e_wo_entrp">   -594.24066551 </i>
    <i name="e_0_energy">   -594.24066551 </i>
   </energy>
  </scstep>
  <scstep>
   <time name="dav">   32.29   32.29</time>
   <time name="total">   36.69   36.70</time>
   <energy>
    <i name="e_fr_energy">   -594.24066666 </i>
    <i name="e_wo_entrp">   -594.24066666 </i>
    <i name="e_0_energy">   -594.24066666 </i>
   </energy>
  </scstep>
  <scstep>
   <time name="dav">   32.96   32.96</time>
   <time name="total">   33.86   33.87</time>
   <energy>
    <i name="alphaZ">    871.83850952 </i>
    <i name="ewald"> 287611.55721385 </i>
    <i name="hartreedc">-343165.63906613 </i>
    <i name="XCdc">   3056.36481146 </i>
    <i name="pawpsdc">  67096.32286252 </i>
    <i name="pawaedc"> -67090.32677621 </i>
    <i name="eentropy">     -0.00000000 </i>
    <i name="bandstr"> -13181.79414827 </i>
    <i name="atom">  64207.43592568 </i>
    <i name="e_fr_energy">   -594.24066758 </i>
    <i name="e_wo_entrp">   -594.24066758 </i>
    <i name="e_0_energy">   -594.24066758 </i>
   </energy>
  </scstep>
  <structure>
   <crystal>
    <varray name="basis" >
     <v>      13.12862340       0.00000000       0.00000000 </v>
     <v>      -6.56431170      11.36972138       0.00000000 </v>
     <v>       0.00000000       0.00000000      26.82809424 </v>
    </varray>
    <i name="volume">   4004.59716953 </i>
    <varray name="rec_basis" >
     <v>       0.07616945       0.04397645       0.00000000 </v>
     <v>       0.00000000       0.08795290       0.00000000 </v>
     <v>       0.00000000       0.00000000       0.03727436 </v>
    </varray>
   </crystal>
   <varray name="positions" >
    <v>       0.08037962       0.17212432       0.44788539 </v>
    <v>       0.08002793       0.41324488       0.45529710 </v>
    <v>       0.08362283       0.66137617       0.45481728 </v>
    <v>       0.07262645       0.91379662       0.45254314 </v>
    <v>       0.33885890       0.17204479       0.45352799 </v>
    <v>       0.33738773       0.42552013       0.45185314 </v>
    <v>       0.34278745       0.66762729       0.45162834 </v>
    <v>       0.31614557       0.90240086       0.45215058 </v>
    <v>       0.58113512       0.17686053       0.45298893 </v>
    <v>       0.57752902       0.42289218       0.44425142 </v>
    <v>       0.59191140       0.67408822       0.45350600 </v>
    <v>       0.58485861       0.92063647       0.45442516 </v>
    <v>       0.82280617       0.15967117       0.45932758 </v>
    <v>       0.83266008       0.41004587       0.45952660 </v>
    <v>       0.82929405       0.65782797       0.45303239 </v>
    <v>       0.82644837       0.90932354       0.45077948 </v>
    <v>       0.16619744       0.08511323       0.54023297 </v>
    <v>       0.17295837       0.34236058       0.54677395 </v>
    <v>       0.16008876       0.57695380       0.54984979 </v>
    <v>       0.16512081       0.83339862       0.54355810 </v>
    <v>       0.40454817       0.07576394       0.54884927 </v>
    <v>       0.43198609       0.33588759       0.54220073 </v>
    <v>       0.42611332       0.58876344       0.54888218 </v>
    <v>       0.40856657       0.82226798       0.55175344 </v>
    <v>       0.64883349       0.07631226       0.54920578 </v>
    <v>       0.66732398       0.33062740       0.54690272 </v>
    <v>       0.67529736       0.58067608       0.54259202 </v>
    <v>       0.66352162       0.83221860       0.55220686 </v>
    <v>       0.91613928       0.07749775       0.54515823 </v>
    <v>       0.91862704       0.32589345       0.54971750 </v>
    <v>       0.93015062       0.59174115       0.54857482 </v>
    <v>       0.91472393       0.82851691       0.54948606 </v>
    <v>       0.08391777       0.15478641       0.57912835 </v>
    <v>       0.09189605       0.43054814       0.59140291 </v>
    <v>       0.09850679       0.67180804       0.58878260 </v>
    <v>       0.07084992       0.89008378       0.58924778 </v>
    <v>       0.32838156       0.18490084       0.58586088 </v>
    <v>       0.36186922       0.42637915       0.59121203 </v>
    <v>       0.34642671       0.65780694       0.59395266 </v>
    <v>       0.33634268       0.91087417       0.59508566 </v>
    <v>       0.60123905       0.17672340       0.59764977 </v>
    <v>       0.58140947       0.40980056       0.58587748 </v>
    <v>       0.58433077       0.66382196       0.59343338 </v>
    <v>       0.57435455       0.92479384       0.58936350 </v>
    <v>       0.87585577       0.17756390       0.59011159 </v>
    <v>       0.83970790       0.42578494       0.59037186 </v>
    <v>       0.84796297       0.68349961       0.58919667 </v>
    <v>       0.84501326       0.92030723       0.58933522 </v>
    <v>       0.16562357       0.07770626       0.40824373 </v>
    <v>       0.15828066       0.34289831       0.40341867 </v>
    <v>       0.16372537       0.57514632       0.41231829 </v>
    <v>       0.16899998       0.81990332       0.41137564 </v>
    <v>       0.42296061       0.09409374       0.40564091 </v>
    <v>       0.41011708       0.34246652       0.40491058 </v>
    <v>       0.40624110       0.57612400       0.40597174 </v>
    <v>       0.41228648       0.83475846       0.41856045 </v>
    <v>       0.65530679       0.08292685       0.41995753 </v>
    <v>       0.68603588       0.35482437       0.40883675 </v>
    <v>       0.67136467       0.57535779       0.40239249 </v>
    <v>       0.65814126       0.83713429       0.40322647 </v>
    <v>       0.91263799       0.09612747       0.40946634 </v>
    <v>       0.90839467       0.32446704       0.41702840 </v>
    <v>       0.92372738       0.59612558       0.41037938 </v>
    <v>       0.91087057       0.82602338       0.40486984 </v>
    <v>       0.99196531       0.99801167       0.49437035 </v>
    <v>       0.99810087       0.24856540       0.49911525 </v>
    <v>       0.00310371       0.50661289       0.50108937 </v>
    <v>       0.00000584       0.75207494       0.50054505 </v>
    <v>       0.24709897       0.00280225       0.50474816 </v>
    <v>       0.24658651       0.25240794       0.50043824 </v>
    <v>       0.24897231       0.49564147       0.50115149 </v>
    <v>       0.24204351       0.74694603       0.50090200 </v>
    <v>       0.48424122       0.99967444       0.49720334 </v>
    <v>       0.49999782       0.25186453       0.49853448 </v>
    <v>       0.51446923       0.50971861       0.49665454 </v>
    <v>       0.49617026       0.74859599       0.50586311 </v>
    <v>       0.73809728       0.99474239       0.50214607 </v>
    <v>       0.74618721       0.25873363       0.50539776 </v>
    <v>       0.75219203       0.50493665       0.50094479 </v>
    <v>       0.74543915       0.76167491       0.49903086 </v>
   </varray>
  </structure>
  <varray name="forces" >
   <v>       0.21986202      -0.25044619       0.12478384 </v>
   <v>       0.08391502       0.23390029      -0.86038131 </v>
   <v>      -0.39350897      -0.05168468      -1.00273524 </v>
   <v>       0.05161154       0.09821749      -0.72672844 </v>
   <v>      -0.90286966      -0.70502680      -0.95183408 </v>
   <v>      -0.41873186      -0.95420874       0.22367248 </v>
   <v>      -1.28078308      -0.66386627       1.01820661 </v>
   <v>       1.25854605       1.62804117       0.83465169 </v>
   <v>      -0.11276190      -1.24586648      -0.17091894 </v>
   <v>       1.07063204      -0.12089489       0.70219025 </v>
   <v>      -0.73375026      -0.24844810      -0.43408634 </v>
   <v>      -0.94530594      -0.60757283       0.42409417 </v>
   <v>       0.65782819       0.68385868      -1.04480479 </v>
   <v>      -0.17003506       1.22634640      -1.52677351 </v>
   <v>       0.91412175       0.81966342      -0.87398887 </v>
   <v>       0.22282007       1.03965641      -0.39813172 </v>
   <v>      -0.43472146       0.58701367       1.20041668 </v>
   <v>       0.90878493      -1.20629336       0.17620194 </v>
   <v>       0.91447948       1.16694230      -1.15934401 </v>
   <v>      -0.11928890      -0.04100889       1.39413063 </v>
   <v>       0.39528266       0.12360137      -0.20935916 </v>
   <v>      -2.45317092       0.44298229       1.26159546 </v>
   <v>       0.20290639      -1.24898168       0.24391908 </v>
   <v>      -0.71557830       0.54277454      -0.83691916 </v>
   <v>      -0.22095476       0.60967337      -0.67608678 </v>
   <v>      -0.53049737       0.87873089       1.47923817 </v>
   <v>      -1.29470151       0.31512198       1.45723982 </v>
   <v>       0.24125466       0.04186443      -0.73565467 </v>
   <v>       0.39284145       0.13382853      -0.33925508 </v>
   <v>      -0.51168262       0.75759697       0.19268319 </v>
   <v>      -0.94607456      -0.78617900       0.13596537 </v>
   <v>       0.18109318       1.32491599      -1.39086817 </v>
   <v>      -0.73949322       0.53514832       1.54962488 </v>
   <v>      -0.04187226      -1.19867790       0.53165301 </v>
   <v>      -0.71982077      -0.06114515       0.63024645 </v>
   <v>      -0.10920208       0.83397397       0.41824231 </v>
   <v>       0.61225106      -0.74376190       0.31942386 </v>
   <v>      -0.61648225      -0.11892533      -0.47959604 </v>
   <v>      -0.84007540       0.41218341       0.00120593 </v>
   <v>      -0.31165844       0.28457972      -0.48911654 </v>
   <v>      -0.35399636      -0.26782321      -0.65407544 </v>
   <v>       0.19643618       0.64277869       0.43968100 </v>
   <v>       0.16835647       0.31144244      -0.30924162 </v>
   <v>       0.41348589      -0.63532182       0.85630238 </v>
   <v>      -1.01811146      -0.07323587       1.08186717 </v>
   <v>       0.10719899      -0.13829486       0.03752357 </v>
   <v>      -0.33942420      -1.48141509       0.66948064 </v>
   <v>      -0.56043888      -0.14576251       0.34771408 </v>
   <v>       0.06533677       0.18122819       0.30022499 </v>
   <v>       0.34622045      -0.31278430       0.87174006 </v>
   <v>       0.10330862       0.39137186      -0.04067007 </v>
   <v>      -0.90207344       0.20654653      -0.79270364 </v>
   <v>      -0.26940545       0.12601405       0.59136716 </v>
   <v>       0.49853490      -0.22694632       0.42902184 </v>
   <v>       0.14136328       0.66891026       0.31864086 </v>
   <v>       0.47943911      -0.28792087      -1.29411467 </v>
   <v>       0.64829872       0.38028998      -1.28816488 </v>
   <v>      -0.33847972      -0.70067186       0.29574582 </v>
   <v>      -0.28341563       0.56994676       0.52775045 </v>
   <v>       0.07178460      -0.10214335       0.95162970 </v>
   <v>      -0.11305133      -0.35563248       0.12840396 </v>
   <v>      -0.15456314       0.24249079      -0.34844089 </v>
   <v>      -0.04292313      -0.40951512       0.20668002 </v>
   <v>      -0.10736050       0.17110309       0.79230931 </v>
   <v>       0.49871966      -0.10205743       0.01874999 </v>
   <v>      -0.09060418       0.23876230       0.40513957 </v>
   <v>       0.39020704      -1.09851237       0.73274588 </v>
   <v>      -0.26621754      -0.30404439      -0.46270680 </v>
   <v>       0.74654285      -0.57034781      -1.87800528 </v>
   <v>       0.61840599       0.55966893      -1.76185147 </v>
   <v>       0.26464908       0.85535752      -0.20296095 </v>
   <v>       1.44439286      -0.02540738       0.11702896 </v>
   <v>       1.32426903       0.51898014       1.75423470 </v>
   <v>       0.28644048      -0.09868201      -0.59969771 </v>
   <v>      -0.62417001      -0.50143374      -0.62086249 </v>
   <v>       0.43170822       0.26797522      -1.40712560 </v>
   <v>       0.35273945       0.42968993       0.47542420 </v>
   <v>       1.52351708      -1.69175973      -0.68195691 </v>
   <v>       0.66674368      -0.31877002      -0.41253078 </v>
   <v>       0.91092662      -1.38170153       0.39289990 </v>
  </varray>
  <varray name="stress" >
   <v>       5.88363903      -0.40603349      -5.64468963 </v>
   <v>      -0.40603346       7.83597756      -0.88262832 </v>
   <v>      -5.64468962      -0.88262833       3.88871709 </v>
  </varray>
  <energy>
   <i name="e_fr_energy">   -594.24066758 </i>
   <i name="e_wo_entrp">   -594.24066758 </i>
   <i name="e_0_energy">     -0.00000000 </i>
  </energy>
  <time name="totalsc"> 1901.03 1901.43</time>
  <eigenvalues>
   <array>
    <dimension dim="1">band</dimension>
    <dimension dim="2">kpoint</dimension>
    <dimension dim="3">spin</dimension>
    <field>eigene</field>
    <field>occ</field>
    <set>
     <set comment="spin 1">
      <set comment="kpoint 1">
       <r>  -51.9456    1.0000 </r>
       <r>  -51.8579    1.0000 </r>
       <r>  -51.7711    1.0000 </r>
       <r>  -51.7554    1.0000 </r>
       <r>  -51.7372    1.0000 </r>
       <r>  -51.7244    1.0000 </r>
       <r>  -51.6445    1.0000 </r>
       <r>  -51.5947    1.0000 </r>
       <r>  -51.5645    1.0000 </r>
       <r>  -51.5561    1.0000 </r>
       <r>  -51.5267    1.0000 </r>
       <r>  -51.5127    1.0000 </r>
       <r>  -51.5119    1.0000 </r>
       <r>  -51.5111    1.0000 </r>
       <r>  -51.4924    1.0000 </r>
       <r>  -51.4600    1.0000 </r>
       <r>  -51.4554    1.0000 </r>
       <r>  -51.4344    1.0000 </r>
       <r>  -51.4256    1.0000 </r>
       <r>  -51.4084    1.0000 </r>
       <r>  -51.3927    1.0000 </r>
       <r>  -51.3897    1.0000 </r>
       <r>  -51.3628    1.0000 </r>
       <r>  -51.3132    1.0000 </r>
       <r>  -51.2747    1.0000 </r>
       <r>  -51.2105    1.0000 </r>
       <r>  -51.1775    1.0000 </r>
       <r>  -51.1374    1.0000 </r>
       <r>  -51.1280    1.0000 </r>
       <r>  -51.0636    1.0000 </r>
       <r>  -50.9750    1.0000 </r>
       <r>  -50.9052    1.0000 </r>
       <r>  -30.9217    1.0000 </r>
       <r>  -30.8901    1.0000 </r>
       <r>  -30.8592    1.0000 </r>
       <r>  -30.8023    1.0000 </r>
       <r>  -30.7729    1.0000 </r>
       <r>  -30.7340    1.0000 </r>
       <r>  -30.7206    1.0000 </r>
       <r>  -30.6902    1.0000 </r>
       <r>  -30.6712    1.0000 </r>
       <r>  -30.6444    1.0000 </r>
       <r>  -30.6315    1.0000 </r>
       <r>  -30.6197    1.0000 </r>
       <r>  -30.5884    1.0000 </r>
       <r>  -30.5686    1.0000 </r>
       <r>  -30.5476    1.0000 </r>
       <r>  -30.5255    1.0000 </r>
       <r>  -30.5062    1.0000 </r>
       <r>  -30.4943    1.0000 </r>
       <r>  -30.4913    1.0000 </r>
       <r>  -30.4713    1.0000 </r>
       <r>  -30.4577    1.0000 </r>
       <r>  -30.4545    1.0000 </r>
       <r>  -30.4470    1.0000 </r>
       <r>  -30.4319    1.0000 </r>
       <r>  -30.4315    1.0000 </r>
       <r>  -30.4015    1.0000 </r>
       <r>  -30.3978    1.0000 </r>
       <r>  -30.3893    1.0000 </r>
       <r>  -30.3783    1.0000 </r>
       <r>  -30.3748    1.0000 </r>
       <r>  -30.3562    1.0000 </r>
       <r>  -30.3435    1.0000 </r>
       <r>  -30.3387    1.0000 </r>
       <r>  -30.3351    1.0000 </r>
       <r>  -30.3186    1.0000 </r>
       <r>  -30.3091    1.0000 </r>
       <r>  -30.2993    1.0000 </r>
       <r>  -30.2857    1.0000 </r>
       <r>  -30.2763    1.0000 </r>
       <r>  -30.2653    1.0000 </r>
       <r>  -30.2577    1.0000 </r>
       <r>  -30.2561    1.0000 </r>
       <r>  -30.2454    1.0000 </r>
       <r>  -30.2359    1.0000 </r>
       <r>  -30.2335    1.0000 </r>
       <r>  -30.2172    1.0000 </r>
       <r>  -30.2114    1.0000 </r>
       <r>  -30.1915    1.0000 </r>
       <r>  -30.1894    1.0000 </r>
       <r>  -30.1846    1.0000 </r>
       <r>  -30.1769    1.0000 </r>
       <r>  -30.1691    1.0000 </r>
       <r>  -30.1623    1.0000 </r>
       <r>  -30.1537    1.0000 </r>
       <r>  -30.1487    1.0000 </r>
       <r>  -30.1459    1.0000 </r>
       <r>  -30.1399    1.0000 </r>
       <r>  -30.1296    1.0000 </r>
       <r>  -30.1263    1.0000 </r>
       <r>  -30.1183    1.0000 </r>
       <r>  -30.1042    1.0000 </r>
       <r>  -30.0999    1.0000 </r>
       <r>  -30.0969    1.0000 </r>
       <r>  -30.0873    1.0000 </r>
       <r>  -30.0731    1.0000 </r>
       <r>  -30.0635    1.0000 </r>
       <r>  -30.0612    1.0000 </r>
       <r>  -30.0542    1.0000 </r>
       <r>  -30.0315    1.0000 </r>
       <r>  -30.0179    1.0000 </r>
       <r>  -30.0071    1.0000 </r>
       <r>  -29.9899    1.0000 </r>
       <r>  -29.9873    1.0000 </r>
       <r>  -29.9698    1.0000 </r>
       <r>  -29.9556    1.0000 </r>
       <r>  -29.9405    1.0000 </r>
       <r>  -29.9302    1.0000 </r>
       <r>  -29.9250    1.0000 </r>
       <r>  -29.9169    1.0000 </r>
       <r>  -29.8961    1.0000 </r>
       <r>  -29.8777    1.0000 </r>
       <r>  -29.8702    1.0000 </r>
       <r>  -29.8391    1.0000 </r>
       <r>  -29.8289    1.0000 </r>
       <r>  -29.8112    1.0000 </r>
       <r>  -29.7975    1.0000 </r>
       <r>  -29.7848    1.0000 </r>
       <r>  -29.7708    1.0000 </r>
       <r>  -29.7676    1.0000 </r>
       <r>  -29.7607    1.0000 </r>
       <r>  -29.7290    1.0000 </r>
       <r>  -29.7200    1.0000 </r>
       <r>  -29.7079    1.0000 </r>
       <r>  -29.6420    1.0000 </r>
       <r>  -29.6182    1.0000 </r>
       <r>  -29.5594    1.0000 </r>
       <r>  -27.2110    1.0000 </r>
       <r>  -27.1541    1.0000 </r>
       <r>  -27.0620    1.0000 </r>
       <r>  -26.9690    1.0000 </r>
       <r>  -26.9441    1.0000 </r>
       <r>  -26.8403    1.0000 </r>
       <r>  -26.8125    1.0000 </r>
       <r>  -26.7929    1.0000 </r>
       <r>  -26.7301    1.0000 </r>
       <r>  -26.7184    1.0000 </r>
       <r>  -26.6825    1.0000 </r>
       <r>  -26.6502    1.0000 </r>
       <r>  -26.6171    1.0000 </r>
       <r>  -26.6119    1.0000 </r>
       <r>  -26.5825    1.0000 </r>
       <r>  -26.5313    1.0000 </r>
       <r>  -26.4912    1.0000 </r>
       <r>  -26.4728    1.0000 </r>
       <r>  -26.4214    1.0000 </r>
       <r>  -26.4025    1.0000 </r>
       <r>  -26.3704    1.0000 </r>
       <r>  -26.3340    1.0000 </r>
       <r>  -26.3139    1.0000 </r>
       <r>  -26.2938    1.0000 </r>
       <r>  -26.2885    1.0000 </r>
       <r>  -26.2802    1.0000 </r>
       <r>  -26.2702    1.0000 </r>
       <r>  -26.2473    1.0000 </r>
       <r>  -26.1272    1.0000 </r>
       <r>  -26.1176    1.0000 </r>
       <r>  -26.0812    1.0000 </r>
       <r>  -25.8803    1.0000 </r>
       <r>  -12.1068    1.0000 </r>
       <r>  -11.7810    1.0000 </r>
       <r>  -11.6839    1.0000 </r>
       <r>  -11.6777    1.0000 </r>
       <r>  -11.6308    1.0000 </r>
       <r>  -11.6096    1.0000 </r>
       <r>  -11.5568    1.0000 </r>
       <r>  -11.1760    1.0000 </r>
       <r>  -11.1340    1.0000 </r>
       <r>  -11.1091    1.0000 </r>
       <r>  -11.0750    1.0000 </r>
       <r>  -11.0496    1.0000 </r>
       <r>  -11.0127    1.0000 </r>
       <r>  -10.9748    1.0000 </r>
       <r>  -10.9288    1.0000 </r>
       <r>  -10.8702    1.0000 </r>
       <r>   -9.5717    1.0000 </r>
       <r>   -9.5366    1.0000 </r>
       <r>   -9.5261    1.0000 </r>
       <r>   -9.4807    1.0000 </r>
       <r>   -9.4479    1.0000 </r>
       <r>   -9.3444    1.0000 </r>
       <r>   -9.3045    1.0000 </r>
       <r>   -9.2737    1.0000 </r>
       <r>   -9.2610    1.0000 </r>
       <r>   -9.2315    1.0000 </r>
       <r>   -9.1793    1.0000 </r>
       <r>   -9.1575    1.0000 </r>
       <r>   -9.1143    1.0000 </r>
       <r>   -9.0982    1.0000 </r>
       <r>   -9.0775    1.0000 </r>
       <r>   -9.0555    1.0000 </r>
       <r>   -9.0418    1.0000 </r>
       <r>   -9.0142    1.0000 </r>
       <r>   -9.0079    1.0000 </r>
       <r>   -8.9933    1.0000 </r>
       <r>   -8.9729    1.0000 </r>
       <r>   -8.9420    1.0000 </r>
       <r>   -8.9311    1.0000 </r>
       <r>   -8.9030    1.0000 </r>
       <r>   -8.8968    1.0000 </r>
       <r>   -8.8756    1.0000 </r>
       <r>   -8.8616    1.0000 </r>
       <r>   -8.8256    1.0000 </r>
       <r>   -8.8179    1.0000 </r>
       <r>   -8.7953    1.0000 </r>
       <r>   -8.7781    1.0000 </r>
       <r>   -8.7473    1.0000 </r>
       <r>   -8.7306    1.0000 </r>
       <r>   -8.7148    1.0000 </r>
       <r>   -8.7069    1.0000 </r>
       <r>   -8.6869    1.0000 </r>
       <r>   -8.6735    1.0000 </r>
       <r>   -8.6535    1.0000 </r>
       <r>   -8.6377    1.0000 </r>
       <r>   -8.6204    1.0000 </r>
       <r>   -8.6022    1.0000 </r>
       <r>   -8.5727    1.0000 </r>
       <r>   -8.5646    1.0000 </r>
       <r>   -8.5517    1.0000 </r>
       <r>   -8.5323    1.0000 </r>
       <r>   -8.5223    1.0000 </r>
       <r>   -8.4820    1.0000 </r>
       <r>   -8.4719    1.0000 </r>
       <r>   -8.4524    1.0000 </r>
       <r>   -8.4424    1.0000 </r>
       <r>   -8.4337    1.0000 </r>
       <r>   -8.4133    1.0000 </r>
       <r>   -8.3996    1.0000 </r>
       <r>   -8.3911    1.0000 </r>
       <r>   -8.3617    1.0000 </r>
       <r>   -8.3575    1.0000 </r>
       <r>   -8.3380    1.0000 </r>
       <r>   -8.3265    1.0000 </r>
       <r>   -8.3023    1.0000 </r>
       <r>   -8.2951    1.0000 </r>
       <r>   -8.2669    1.0000 </r>
       <r>   -8.2537    1.0000 </r>
       <r>   -8.2507    1.0000 </r>
       <r>   -8.2443    1.0000 </r>
       <r>   -8.2327    1.0000 </r>
       <r>   -8.2112    1.0000 </r>
       <r>   -8.2013    1.0000 </r>
       <r>   -8.1907    1.0000 </r>
       <r>   -8.1734    1.0000 </r>
       <r>   -8.1562    1.0000 </r>
       <r>   -8.1524    1.0000 </r>
       <r>   -8.1305    1.0000 </r>
       <r>   -8.1184    1.0000 </r>
       <r>   -8.1115    1.0000 </r>
       <r>   -8.0969    1.0000 </r>
       <r>   -8.0865    1.0000 </r>
       <r>   -8.0723    1.0000 </r>
       <r>   -8.0658    1.0000 </r>
       <r>   -8.0602    1.0000 </r>
       <r>   -8.0282    1.0000 </r>
       <r>   -8.0247    1.0000 </r>
       <r>   -8.0174    1.0000 </r>
       <r>   -7.9963    1.0000 </r>
       <r>   -7.9835    1.0000 </r>
       <r>   -7.9548    1.0000 </r>
       <r>   -7.9422    1.0000 </r>
       <r>   -7.9082    1.0000 </r>
       <r>   -7.8729    1.0000 </r>
       <r>   -7.8487    1.0000 </r>
       <r>   -7.8182    1.0000 </r>
       <r>   -7.8045    1.0000 </r>
       <r>   -7.8022    1.0000 </r>
       <r>   -7.7949    1.0000 </r>
       <r>   -7.7245    1.0000 </r>
       <r>   -7.6558    1.0000 </r>
       <r>   -7.5782    1.0000 </r>
       <r>   -5.2426    1.0000 </r>
       <r>   -5.2188    1.0000 </r>
       <r>   -5.1229    1.0000 </r>
       <r>   -4.9749    1.0000 </r>
       <r>   -4.9187    1.0000 </r>
       <r>   -4.8651    1.0000 </r>
       <r>   -4.8444    1.0000 </r>
       <r>   -4.8306    1.0000 </r>
       <r>   -4.7386    1.0000 </r>
       <r>   -4.5744    1.0000 </r>
       <r>   -4.4744    1.0000 </r>
       <r>   -4.4643    1.0000 </r>
       <r>   -4.4160    1.0000 </r>
       <r>   -4.3842    1.0000 </r>
       <r>   -4.3611    1.0000 </r>
       <r>   -4.3259    1.0000 </r>
       <r>   -4.2948    1.0000 </r>
       <r>   -4.2775    1.0000 </r>
       <r>   -4.2523    1.0000 </r>
       <r>   -4.2379    1.0000 </r>
       <r>   -4.1946    1.0000 </r>
       <r>   -4.1556    1.0000 </r>
       <r>   -4.1431    1.0000 </r>
       <r>   -4.1237    1.0000 </r>
       <r>   -4.1089    1.0000 </r>
       <r>   -4.0993    1.0000 </r>
       <r>   -4.0682    1.0000 </r>
       <r>   -4.0501    1.0000 </r>
       <r>   -3.9905    1.0000 </r>
       <r>   -3.9473    1.0000 </r>
       <r>   -3.8808    1.0000 </r>
       <r>   -3.8318    1.0000 </r>
       <r>   -3.8107    1.0000 </r>
       <r>   -3.7760    1.0000 </r>
       <r>   -3.7570    1.0000 </r>
       <r>   -3.6763    1.0000 </r>
       <r>   -3.5708    1.0000 </r>
       <r>   -3.4374    1.0000 </r>
       <r>   -3.3778    1.0000 </r>
       <r>   -3.3112    1.0000 </r>
       <r>   -3.2858    1.0000 </r>
       <r>   -3.2669    1.0000 </r>
       <r>   -3.2165    1.0000 </r>
       <r>   -3.1521    1.0000 </r>
       <r>   -3.1341    1.0000 </r>
       <r>   -3.0743    1.0000 </r>
       <r>   -2.9593    1.0000 </r>
       <r>   -2.9223    1.0000 </r>
       <r>   -1.8749    0.0000 </r>
       <r>   -1.8674    0.0000 </r>
       <r>   -1.7686    0.0000 </r>
       <r>   -1.3097    0.0000 </r>
       <r>   -1.2772    0.0000 </r>
       <r>   -1.2254    0.0000 </r>
       <r>   -1.1792    0.0000 </r>
       <r>   -1.1504    0.0000 </r>
       <r>   -1.0822    0.0000 </r>
       <r>   -0.5936    0.0000 </r>
       <r>   -0.5264    0.0000 </r>
       <r>   -0.4515    0.0000 </r>
       <r>   -0.4224    0.0000 </r>
       <r>   -0.3840    0.0000 </r>
       <r>   -0.3545    0.0000 </r>
       <r>   -0.3167    0.0000 </r>
       <r>   -0.2945    0.0000 </r>
       <r>   -0.2755    0.0000 </r>
       <r>   -0.2379    0.0000 </r>
       <r>   -0.2052    0.0000 </r>
       <r>   -0.1701    0.0000 </r>
       <r>   -0.1225    0.0000 </r>
       <r>   -0.0673    0.0000 </r>
       <r>   -0.0343    0.0000 </r>
       <r>    0.1474    0.0000 </r>
       <r>    0.2537    0.0000 </r>
       <r>    0.2777    0.0000 </r>
       <r>    0.2973    0.0000 </r>
       <r>    0.3405    0.0000 </r>
       <r>    0.3738    0.0000 </r>
       <r>    0.4307    0.0000 </r>
       <r>    0.4398    0.0000 </r>
       <r>    0.4859    0.0000 </r>
       <r>    0.4879    0.0000 </r>
       <r>    0.5193    0.0000 </r>
       <r>    0.5460    0.0000 </r>
       <r>    0.5625    0.0000 </r>
       <r>    0.6090    0.0000 </r>
       <r>    0.6383    0.0000 </r>
       <r>    0.6537    0.0000 </r>
       <r>    0.6778    0.0000 </r>
       <r>    0.7183    0.0000 </r>
       <r>    0.7349    0.0000 </r>
       <r>    0.7708    0.0000 </r>
       <r>    0.8020    0.0000 </r>
       <r>    0.8195    0.0000 </r>
       <r>    0.8490    0.0000 </r>
       <r>    0.8851    0.0000 </r>
       <r>    0.8955    0.0000 </r>
       <r>    0.9220    0.0000 </r>
       <r>    0.9480    0.0000 </r>
       <r>    0.9629    0.0000 </r>
       <r>    0.9821    0.0000 </r>
       <r>    0.9961    0.0000 </r>
       <r>    1.0113    0.0000 </r>
       <r>    1.0355    0.0000 </r>
       <r>    1.0685    0.0000 </r>
       <r>    1.0888    0.0000 </r>
       <r>    1.0915    0.0000 </r>
       <r>    1.1197    0.0000 </r>
       <r>    1.1440    0.0000 </r>
       <r>    1.1650    0.0000 </r>
       <r>    1.1933    0.0000 </r>
       <r>    1.2033    0.0000 </r>
      </set>
      <set comment="kpoint 2">
       <r>  -51.9456    1.0000 </r>
       <r>  -51.8579    1.0000 </r>
       <r>  -51.7710    1.0000 </r>
       <r>  -51.7554    1.0000 </r>
       <r>  -51.7373    1.0000 </r>
       <r>  -51.7243    1.0000 </r>
       <r>  -51.6445    1.0000 </r>
       <r>  -51.5947    1.0000 </r>
       <r>  -51.5645    1.0000 </r>
       <r>  -51.5561    1.0000 </r>
       <r>  -51.5267    1.0000 </r>
       <r>  -51.5127    1.0000 </r>
       <r>  -51.5119    1.0000 </r>
       <r>  -51.5112    1.0000 </r>
       <r>  -51.4924    1.0000 </r>
       <r>  -51.4598    1.0000 </r>
       <r>  -51.4555    1.0000 </r>
       <r>  -51.4343    1.0000 </r>
       <r>  -51.4256    1.0000 </r>
       <r>  -51.4083    1.0000 </r>
       <r>  -51.3927    1.0000 </r>
       <r>  -51.3897    1.0000 </r>
       <r>  -51.3628    1.0000 </r>
       <r>  -51.3132    1.0000 </r>
       <r>  -51.2747    1.0000 </r>
       <r>  -51.2105    1.0000 </r>
       <r>  -51.1775    1.0000 </r>
       <r>  -51.1374    1.0000 </r>
       <r>  -51.1280    1.0000 </r>
       <r>  -51.0636    1.0000 </r>
       <r>  -50.9750    1.0000 </r>
       <r>  -50.9052    1.0000 </r>
       <r>  -30.9194    1.0000 </r>
       <r>  -30.8889    1.0000 </r>
       <r>  -30.8587    1.0000 </r>
       <r>  -30.8008    1.0000 </r>
       <r>  -30.7725    1.0000 </r>
       <r>  -30.7390    1.0000 </r>
       <r>  -30.7162    1.0000 </r>
       <r>  -30.6941    1.0000 </r>
       <r>  -30.6713    1.0000 </r>
       <r>  -30.6415    1.0000 </r>
       <r>  -30.6323    1.0000 </r>
       <r>  -30.6172    1.0000 </r>
       <r>  -30.5892    1.0000 </r>
       <r>  -30.5715    1.0000 </r>
       <r>  -30.5490    1.0000 </r>
       <r>  -30.5212    1.0000 </r>
       <r>  -30.5119    1.0000 </r>
       <r>  -30.4970    1.0000 </r>
       <r>  -30.4874    1.0000 </r>
       <r>  -30.4682    1.0000 </r>
       <r>  -30.4586    1.0000 </r>
       <r>  -30.4520    1.0000 </r>
       <r>  -30.4479    1.0000 </r>
       <r>  -30.4354    1.0000 </r>
       <r>  -30.4288    1.0000 </r>
       <r>  -30.4199    1.0000 </r>
       <r>  -30.3993    1.0000 </r>
       <r>  -30.3861    1.0000 </r>
       <r>  -30.3800    1.0000 </r>
       <r>  -30.3774    1.0000 </r>
       <r>  -30.3648    1.0000 </r>
       <r>  -30.3481    1.0000 </r>
       <r>  -30.3415    1.0000 </r>
       <r>  -30.3266    1.0000 </r>
       <r>  -30.3151    1.0000 </r>
       <r>  -30.3064    1.0000 </r>
       <r>  -30.2988    1.0000 </r>
       <r>  -30.2877    1.0000 </r>
       <r>  -30.2831    1.0000 </r>
       <r>  -30.2678    1.0000 </r>
       <r>  -30.2613    1.0000 </r>
       <r>  -30.2515    1.0000 </r>
       <r>  -30.2415    1.0000 </r>
       <r>  -30.2341    1.0000 </r>
       <r>  -30.2282    1.0000 </r>
       <r>  -30.2191    1.0000 </r>
       <r>  -30.2075    1.0000 </r>
       <r>  -30.2014    1.0000 </r>
       <r>  -30.1896    1.0000 </r>
       <r>  -30.1760    1.0000 </r>
       <r>  -30.1720    1.0000 </r>
       <r>  -30.1651    1.0000 </r>
       <r>  -30.1618    1.0000 </r>
       <r>  -30.1526    1.0000 </r>
       <r>  -30.1476    1.0000 </r>
       <r>  -30.1413    1.0000 </r>
       <r>  -30.1323    1.0000 </r>
       <r>  -30.1257    1.0000 </r>
       <r>  -30.1233    1.0000 </r>
       <r>  -30.1146    1.0000 </r>
       <r>  -30.1040    1.0000 </r>
       <r>  -30.1013    1.0000 </r>
       <r>  -30.0906    1.0000 </r>
       <r>  -30.0826    1.0000 </r>
       <r>  -30.0788    1.0000 </r>
       <r>  -30.0671    1.0000 </r>
       <r>  -30.0618    1.0000 </r>
       <r>  -30.0568    1.0000 </r>
       <r>  -30.0303    1.0000 </r>
       <r>  -30.0192    1.0000 </r>
       <r>  -30.0114    1.0000 </r>
       <r>  -29.9881    1.0000 </r>
       <r>  -29.9846    1.0000 </r>
       <r>  -29.9755    1.0000 </r>
       <r>  -29.9549    1.0000 </r>
       <r>  -29.9435    1.0000 </r>
       <r>  -29.9353    1.0000 </r>
       <r>  -29.9235    1.0000 </r>
       <r>  -29.9142    1.0000 </r>
       <r>  -29.8977    1.0000 </r>
       <r>  -29.8758    1.0000 </r>
       <r>  -29.8700    1.0000 </r>
       <r>  -29.8374    1.0000 </r>
       <r>  -29.8276    1.0000 </r>
       <r>  -29.8113    1.0000 </r>
       <r>  -29.7974    1.0000 </r>
       <r>  -29.7836    1.0000 </r>
       <r>  -29.7735    1.0000 </r>
       <r>  -29.7694    1.0000 </r>
       <r>  -29.7601    1.0000 </r>
       <r>  -29.7343    1.0000 </r>
       <r>  -29.7202    1.0000 </r>
       <r>  -29.7071    1.0000 </r>
       <r>  -29.6431    1.0000 </r>
       <r>  -29.6186    1.0000 </r>
       <r>  -29.5603    1.0000 </r>
       <r>  -27.2108    1.0000 </r>
       <r>  -27.1537    1.0000 </r>
       <r>  -27.0622    1.0000 </r>
       <r>  -26.9689    1.0000 </r>
       <r>  -26.9440    1.0000 </r>
       <r>  -26.8403    1.0000 </r>
       <r>  -26.8125    1.0000 </r>
       <r>  -26.7927    1.0000 </r>
       <r>  -26.7301    1.0000 </r>
       <r>  -26.7184    1.0000 </r>
       <r>  -26.6824    1.0000 </r>
       <r>  -26.6502    1.0000 </r>
       <r>  -26.6173    1.0000 </r>
       <r>  -26.6118    1.0000 </r>
       <r>  -26.5825    1.0000 </r>
       <r>  -26.5315    1.0000 </r>
       <r>  -26.4913    1.0000 </r>
       <r>  -26.4728    1.0000 </r>
       <r>  -26.4214    1.0000 </r>
       <r>  -26.4026    1.0000 </r>
       <r>  -26.3704    1.0000 </r>
[...]
       <r>   -32.3788     0.0000    64.0000 </r>
       <r>   -32.1838     0.0000    64.0000 </r>
       <r>   -31.9889     0.0000    64.0000 </r>
       <r>   -31.7939     0.0000    64.0000 </r>
       <r>   -31.5989     0.0000    64.0000 </r>
       <r>   -31.4040     0.0000    64.0000 </r>
       <r>   -31.2090     0.0000    64.0000 </r>
       <r>   -31.0141     0.0416    64.0081 </r>
       <r>   -30.8191    32.7870    70.4003 </r>
       <r>   -30.6241    78.2245    85.6509 </r>
       <r>   -30.4292   134.7638   111.9244 </r>
       <r>   -30.2342   200.0304   150.9222 </r>
       <r>   -30.0393   249.9290   199.6483 </r>
       <r>   -29.8443   151.5112   229.1868 </r>
       <r>   -29.6493   112.3096   251.0826 </r>
       <r>   -29.4544    25.2096   255.9975 </r>
       <r>   -29.2594     0.0128   256.0000 </r>
       <r>   -29.0645     0.0000   256.0000 </r>
       <r>   -28.8695     0.0000   256.0000 </r>
       <r>   -28.6745     0.0000   256.0000 </r>
       <r>   -28.4796     0.0000   256.0000 </r>
       <r>   -28.2846     0.0000   256.0000 </r>
       <r>   -28.0897     0.0000   256.0000 </r>
       <r>   -27.8947     0.0000   256.0000 </r>
       <r>   -27.6997     0.0000   256.0000 </r>
       <r>   -27.5048     0.0000   256.0000 </r>
       <r>   -27.3098     0.0262   256.0051 </r>
       <r>   -27.1149    19.7588   259.8573 </r>
       <r>   -26.9199    28.2784   265.3704 </r>
       <r>   -26.7249    45.1208   274.1671 </r>
       <r>   -26.5300    67.0568   287.2405 </r>
       <r>   -26.3350    64.2779   299.7721 </r>
       <r>   -26.1401    69.5581   313.3331 </r>
       <r>   -25.9451    24.2795   318.0666 </r>
       <r>   -25.7502     9.9156   319.9998 </r>
       <r>   -25.5552     0.0012   320.0000 </r>
       <r>   -25.3602     0.0000   320.0000 </r>
       <r>   -25.1653     0.0000   320.0000 </r>
       <r>   -24.9703     0.0000   320.0000 </r>
       <r>   -24.7754     0.0000   320.0000 </r>
       <r>   -24.5804     0.0000   320.0000 </r>
       <r>   -24.3854     0.0000   320.0000 </r>
       <r>   -24.1905     0.0000   320.0000 </r>
       <r>   -23.9955     0.0000   320.0000 </r>
       <r>   -23.8006     0.0000   320.0000 </r>
       <r>   -23.6056     0.0000   320.0000 </r>
       <r>   -23.4106     0.0000   320.0000 </r>
       <r>   -23.2157     0.0000   320.0000 </r>
       <r>   -23.0207     0.0000   320.0000 </r>
       <r>   -22.8258     0.0000   320.0000 </r>
       <r>   -22.6308     0.0000   320.0000 </r>
       <r>   -22.4358     0.0000   320.0000 </r>
       <r>   -22.2409     0.0000   320.0000 </r>
       <r>   -22.0459     0.0000   320.0000 </r>
       <r>   -21.8510     0.0000   320.0000 </r>
       <r>   -21.6560     0.0000   320.0000 </r>
       <r>   -21.4610     0.0000   320.0000 </r>
       <r>   -21.2661     0.0000   320.0000 </r>
       <r>   -21.0711     0.0000   320.0000 </r>
       <r>   -20.8762     0.0000   320.0000 </r>
       <r>   -20.6812     0.0000   320.0000 </r>
       <r>   -20.4862     0.0000   320.0000 </r>
       <r>   -20.2913     0.0000   320.0000 </r>
       <r>   -20.0963     0.0000   320.0000 </r>
       <r>   -19.9014     0.0000   320.0000 </r>
       <r>   -19.7064     0.0000   320.0000 </r>
       <r>   -19.5114     0.0000   320.0000 </r>
       <r>   -19.3165     0.0000   320.0000 </r>
       <r>   -19.1215     0.0000   320.0000 </r>
       <r>   -18.9266     0.0000   320.0000 </r>
       <r>   -18.7316     0.0000   320.0000 </r>
       <r>   -18.5366     0.0000   320.0000 </r>
       <r>   -18.3417     0.0000   320.0000 </r>
       <r>   -18.1467     0.0000   320.0000 </r>
       <r>   -17.9518     0.0000   320.0000 </r>
       <r>   -17.7568     0.0000   320.0000 </r>
       <r>   -17.5618     0.0000   320.0000 </r>
       <r>   -17.3669     0.0000   320.0000 </r>
       <r>   -17.1719     0.0000   320.0000 </r>
       <r>   -16.9770     0.0000   320.0000 </r>
       <r>   -16.7820     0.0000   320.0000 </r>
       <r>   -16.5871     0.0000   320.0000 </r>
       <r>   -16.3921     0.0000   320.0000 </r>
       <r>   -16.1971     0.0000   320.0000 </r>
       <r>   -16.0022     0.0000   320.0000 </r>
       <r>   -15.8072     0.0000   320.0000 </r>
       <r>   -15.6123     0.0000   320.0000 </r>
       <r>   -15.4173     0.0000   320.0000 </r>
       <r>   -15.2223     0.0000   320.0000 </r>
       <r>   -15.0274     0.0000   320.0000 </r>
       <r>   -14.8324     0.0000   320.0000 </r>
       <r>   -14.6375     0.0000   320.0000 </r>
       <r>   -14.4425     0.0000   320.0000 </r>
       <r>   -14.2475     0.0000   320.0000 </r>
       <r>   -14.0526     0.0000   320.0000 </r>
       <r>   -13.8576     0.0000   320.0000 </r>
       <r>   -13.6627     0.0000   320.0000 </r>
       <r>   -13.4677     0.0000   320.0000 </r>
       <r>   -13.2727     0.0000   320.0000 </r>
       <r>   -13.0778     0.0000   320.0000 </r>
       <r>   -12.8828     0.0000   320.0000 </r>
       <r>   -12.6879     0.0000   320.0000 </r>
       <r>   -12.4929     0.0000   320.0000 </r>
       <r>   -12.2979     0.0000   320.0000 </r>
       <r>   -12.1030     1.3704   320.2672 </r>
       <r>   -11.9080    14.3450   323.0639 </r>
       <r>   -11.7131    17.0813   326.3940 </r>
       <r>   -11.5181    18.4669   329.9943 </r>
       <r>   -11.3231    22.0373   334.2907 </r>
       <r>   -11.1282    30.0849   340.1561 </r>
       <r>   -10.9332    39.8634   347.9278 </r>
       <r>   -10.7383    20.7112   351.9657 </r>
       <r>   -10.5433     0.1761   352.0000 </r>
       <r>   -10.3483     0.0000   352.0000 </r>
       <r>   -10.1534     0.0000   352.0000 </r>
       <r>    -9.9584     0.0000   352.0000 </r>
       <r>    -9.7635     0.0000   352.0000 </r>
       <r>    -9.5685     6.5054   353.2683 </r>
       <r>    -9.3735    46.0655   362.2492 </r>
       <r>    -9.1786    58.0595   373.5684 </r>
       <r>    -8.9836    90.9493   391.2999 </r>
       <r>    -8.7887   103.8068   411.5380 </r>
       <r>    -8.5937   115.5350   434.0627 </r>
       <r>    -8.3988   119.8259   457.4239 </r>
       <r>    -8.2038   139.2863   484.5791 </r>
       <r>    -8.0088   156.8501   515.1585 </r>
       <r>    -7.8139    89.0517   532.5200 </r>
       <r>    -7.6189    48.1968   541.9164 </r>
       <r>    -7.4240    10.6873   544.0000 </r>
       <r>    -7.2290     0.0001   544.0000 </r>
       <r>    -7.0340     0.0000   544.0000 </r>
       <r>    -6.8391     0.0000   544.0000 </r>
       <r>    -6.6441     0.0000   544.0000 </r>
       <r>    -6.4492     0.0000   544.0000 </r>
       <r>    -6.2542     0.0000   544.0000 </r>
       <r>    -6.0592     0.0000   544.0000 </r>
       <r>    -5.8643     0.0000   544.0000 </r>
       <r>    -5.6693     0.0000   544.0000 </r>
       <r>    -5.4744     0.0000   544.0000 </r>
       <r>    -5.2794     0.3385   544.0660 </r>
       <r>    -5.0844    24.3342   548.8102 </r>
       <r>    -4.8895    36.2559   555.8786 </r>
       <r>    -4.6945    35.4953   562.7987 </r>
       <r>    -4.4996    28.3364   568.3232 </r>
       <r>    -4.3046    42.3745   576.5845 </r>
       <r>    -4.1096    53.0791   586.9328 </r>
       <r>    -3.9147    62.0979   599.0394 </r>
       <r>    -3.7197    64.6492   611.6434 </r>
       <r>    -3.5248    45.5776   620.5292 </r>
       <r>    -3.3298    39.5881   628.2472 </r>
       <r>    -3.1348    32.1297   634.5112 </r>
       <r>    -2.9399    25.6497   639.5119 </r>
       <r>    -2.7449     2.5037   640.0000 </r>
       <r>    -2.5500     0.0000   640.0000 </r>
       <r>    -2.3550     0.0000   640.0000 </r>
       <r>    -2.1600     0.0000   640.0000 </r>
       <r>    -1.9651     0.0094   640.0018 </r>
       <r>    -1.7701     6.9746   641.3616 </r>
       <r>    -1.5752    13.2540   643.9456 </r>
       <r>    -1.3802    20.2171   647.8871 </r>
       <r>    -1.1852    15.7233   650.9525 </r>
       <r>    -0.9903    21.7530   655.1935 </r>
       <r>    -0.7953    24.9634   660.0604 </r>
       <r>    -0.6004    24.2528   664.7887 </r>
       <r>    -0.4054    31.4828   670.9265 </r>
       <r>    -0.2104    36.2969   678.0030 </r>
       <r>    -0.0155    32.7875   684.3952 </r>
       <r>     0.1795    28.7357   689.9975 </r>
       <r>     0.3744    31.6492   696.1678 </r>
       <r>     0.5694    56.6190   707.2062 </r>
       <r>     0.7643    83.8981   723.5630 </r>
       <r>     0.9593    99.2435   742.9114 </r>
       <r>     1.1543   101.7460   762.7478 </r>
       <r>     1.3492    26.9395   767.9999 </r>
       <r>     1.5442     0.0006   768.0000 </r>
       <r>     1.7391     0.0000   768.0000 </r>
       <r>     1.9341     0.0000   768.0000 </r>
       <r>     2.1291     0.0000   768.0000 </r>
       <r>     2.3240     0.0000   768.0000 </r>
       <r>     2.5190     0.0000   768.0000 </r>
       <r>     2.7139     0.0000   768.0000 </r>
       <r>     2.9089     0.0000   768.0000 </r>
       <r>     3.1039     0.0000   768.0000 </r>
       <r>     3.2988     0.0000   768.0000 </r>
       <r>     3.4938     0.0000   768.0000 </r>
       <r>     3.6887     0.0000   768.0000 </r>
       <r>     3.8837     0.0000   768.0000 </r>
      </set>
     </set>
    </array>
   </total>
  </dos>
 </calculation>
 <structure name="finalpos" >
  <crystal>
   <varray name="basis" >
    <v>      13.12862340       0.00000000       0.00000000 </v>
    <v>      -6.56431170      11.36972138       0.00000000 </v>
    <v>       0.00000000       0.00000000      26.82809424 </v>
   </varray>
   <i name="volume">   4004.59716953 </i>
   <varray name="rec_basis" >
    <v>       0.07616945       0.04397645       0.00000000 </v>
    <v>       0.00000000       0.08795290       0.00000000 </v>
    <v>       0.00000000       0.00000000       0.03727436 </v>
   </varray>
  </crystal>
  <varray name="positions" >
   <v>       0.08037962       0.17212432       0.44788539 </v>
   <v>       0.08002793       0.41324488       0.45529710 </v>
   <v>       0.08362283       0.66137617       0.45481728 </v>
   <v>       0.07262645       0.91379662       0.45254314 </v>
   <v>       0.33885890       0.17204479       0.45352799 </v>
   <v>       0.33738773       0.42552013       0.45185314 </v>
   <v>       0.34278745       0.66762729       0.45162834 </v>
   <v>       0.31614557       0.90240086       0.45215058 </v>
   <v>       0.58113512       0.17686053       0.45298893 </v>
   <v>       0.57752902       0.42289218       0.44425142 </v>
   <v>       0.59191140       0.67408822       0.45350600 </v>
   <v>       0.58485861       0.92063647       0.45442516 </v>
   <v>       0.82280617       0.15967117       0.45932758 </v>
   <v>       0.83266008       0.41004587       0.45952660 </v>
   <v>       0.82929405       0.65782797       0.45303239 </v>
   <v>       0.82644837       0.90932354       0.45077948 </v>
   <v>       0.16619744       0.08511323       0.54023297 </v>
   <v>       0.17295837       0.34236058       0.54677395 </v>
   <v>       0.16008876       0.57695380       0.54984979 </v>
   <v>       0.16512081       0.83339862       0.54355810 </v>
   <v>       0.40454817       0.07576394       0.54884927 </v>
   <v>       0.43198609       0.33588759       0.54220073 </v>
   <v>       0.42611332       0.58876344       0.54888218 </v>
   <v>       0.40856657       0.82226798       0.55175344 </v>
   <v>       0.64883349       0.07631226       0.54920578 </v>
   <v>       0.66732398       0.33062740       0.54690272 </v>
   <v>       0.67529736       0.58067608       0.54259202 </v>
   <v>       0.66352162       0.83221860       0.55220686 </v>
   <v>       0.91613928       0.07749775       0.54515823 </v>
   <v>       0.91862704       0.32589345       0.54971750 </v>
   <v>       0.93015062       0.59174115       0.54857482 </v>
   <v>       0.91472393       0.82851691       0.54948606 </v>
   <v>       0.08391777       0.15478641       0.57912835 </v>
   <v>       0.09189605       0.43054814       0.59140291 </v>
   <v>       0.09850679       0.67180804       0.58878260 </v>
   <v>       0.07084992       0.89008378       0.58924778 </v>
   <v>       0.32838156       0.18490084       0.58586088 </v>
   <v>       0.36186922       0.42637915       0.59121203 </v>
   <v>       0.34642671       0.65780694       0.59395266 </v>
   <v>       0.33634268       0.91087417       0.59508566 </v>
   <v>       0.60123905       0.17672340       0.59764977 </v>
   <v>       0.58140947       0.40980056       0.58587748 </v>
   <v>       0.58433077       0.66382196       0.59343338 </v>
   <v>       0.57435455       0.92479384       0.58936350 </v>
   <v>       0.87585577       0.17756390       0.59011159 </v>
   <v>       0.83970790       0.42578494       0.59037186 </v>
   <v>       0.84796297       0.68349961       0.58919667 </v>
   <v>       0.84501326       0.92030723       0.58933522 </v>
   <v>       0.16562357       0.07770626       0.40824373 </v>
   <v>       0.15828066       0.34289831       0.40341867 </v>
   <v>       0.16372537       0.57514632       0.41231829 </v>
   <v>       0.16899998       0.81990332       0.41137564 </v>
   <v>       0.42296061       0.09409374       0.40564091 </v>
   <v>       0.41011708       0.34246652       0.40491058 </v>
   <v>       0.40624110       0.57612400       0.40597174 </v>
   <v>       0.41228648       0.83475846       0.41856045 </v>
   <v>       0.65530679       0.08292685       0.41995753 </v>
   <v>       0.68603588       0.35482437       0.40883675 </v>
   <v>       0.67136467       0.57535779       0.40239249 </v>
   <v>       0.65814126       0.83713429       0.40322647 </v>
   <v>       0.91263799       0.09612747       0.40946634 </v>
   <v>       0.90839467       0.32446704       0.41702840 </v>
   <v>       0.92372738       0.59612558       0.41037938 </v>
   <v>       0.91087057       0.82602338       0.40486984 </v>
   <v>       0.99196531       0.99801167       0.49437035 </v>
   <v>       0.99810087       0.24856540       0.49911525 </v>
   <v>       0.00310371       0.50661289       0.50108937 </v>
   <v>       0.00000584       0.75207494       0.50054505 </v>
   <v>       0.24709897       0.00280225       0.50474816 </v>
   <v>       0.24658651       0.25240794       0.50043824 </v>
   <v>       0.24897231       0.49564147       0.50115149 </v>
   <v>       0.24204351       0.74694603       0.50090200 </v>
   <v>       0.48424122       0.99967444       0.49720334 </v>
   <v>       0.49999782       0.25186453       0.49853448 </v>
   <v>       0.51446923       0.50971861       0.49665454 </v>
   <v>       0.49617026       0.74859599       0.50586311 </v>
   <v>       0.73809728       0.99474239       0.50214607 </v>
   <v>       0.74618721       0.25873363       0.50539776 </v>
   <v>       0.75219203       0.50493665       0.50094479 </v>
   <v>       0.74543915       0.76167491       0.49903086 </v>
  </varray>
  <varray name="velocities" >
   <v>       0.00000000       0.00000000       0.00000000 </v>
   <v>       0.00000000       0.00000000       0.00000000 </v>
   <v>       0.00000000       0.00000000       0.00000000 </v>
   <v>       0.00000000       0.00000000       0.00000000 </v>
   <v>       0.00000000       0.00000000       0.00000000 </v>
   <v>       0.00000000       0.00000000       0.00000000 </v>
   <v>       0.00000000       0.00000000       0.00000000 </v>
   <v>       0.00000000       0.00000000       0.00000000 </v>
   <v>       0.00000000       0.00000000       0.00000000 </v>
   <v>       0.00000000       0.00000000       0.00000000 </v>
   <v>       0.00000000       0.00000000       0.00000000 </v>
   <v>       0.00000000       0.00000000       0.00000000 </v>
   <v>       0.00000000       0.00000000       0.00000000 </v>
   <v>       0.00000000       0.00000000       0.00000000 </v>
   <v>       0.00000000       0.00000000       0.00000000 </v>
   <v>       0.00000000       0.00000000       0.00000000 </v>
   <v>       0.00000000       0.00000000       0.00000000 </v>
   <v>       0.00000000       0.00000000       0.00000000 </v>
   <v>       0.00000000       0.00000000       0.00000000 </v>
   <v>       0.00000000       0.00000000       0.00000000 </v>
   <v>       0.00000000       0.00000000       0.00000000 </v>
   <v>       0.00000000       0.00000000       0.00000000 </v>
   <v>       0.00000000       0.00000000       0.00000000 </v>
   <v>       0.00000000       0.00000000       0.00000000 </v>
   <v>       0.00000000       0.00000000       0.00000000 </v>
   <v>       0.00000000       0.00000000       0.00000000 </v>
   <v>       0.00000000       0.00000000       0.00000000 </v>
   <v>       0.00000000       0.00000000       0.00000000 </v>
   <v>       0.00000000       0.00000000       0.00000000 </v>
   <v>       0.00000000       0.00000000       0.00000000 </v>
   <v>       0.00000000       0.00000000       0.00000000 </v>
   <v>       0.00000000       0.00000000       0.00000000 </v>
   <v>       0.00000000       0.00000000       0.00000000 </v>
   <v>       0.00000000       0.00000000       0.00000000 </v>
   <v>       0.00000000       0.00000000       0.00000000 </v>
   <v>       0.00000000       0.00000000       0.00000000 </v>
   <v>       0.00000000       0.00000000       0.00000000 </v>
   <v>       0.00000000       0.00000000       0.00000000 </v>
   <v>       0.00000000       0.00000000       0.00000000 </v>
   <v>       0.00000000       0.00000000       0.00000000 </v>
   <v>       0.00000000       0.00000000       0.00000000 </v>
   <v>       0.00000000       0.00000000       0.00000000 </v>
   <v>       0.00000000       0.00000000       0.00000000 </v>
   <v>       0.00000000       0.00000000       0.00000000 </v>
   <v>       0.00000000       0.00000000       0.00000000 </v>
   <v>       0.00000000       0.00000000       0.00000000 </v>
   <v>       0.00000000       0.00000000       0.00000000 </v>
   <v>       0.00000000       0.00000000       0.00000000 </v>
   <v>       0.00000000       0.00000000       0.00000000 </v>
   <v>       0.00000000       0.00000000       0.00000000 </v>
   <v>       0.00000000       0.00000000       0.00000000 </v>
   <v>       0.00000000       0.00000000       0.00000000 </v>
   <v>       0.00000000       0.00000000       0.00000000 </v>
   <v>       0.00000000       0.00000000       0.00000000 </v>
   <v>       0.00000000       0.00000000       0.00000000 </v>
   <v>       0.00000000       0.00000000       0.00000000 </v>
   <v>       0.00000000       0.00000000       0.00000000 </v>
   <v>       0.00000000       0.00000000       0.00000000 </v>
   <v>       0.00000000       0.00000000       0.00000000 </v>
   <v>       0.00000000       0.00000000       0.00000000 </v>
   <v>       0.00000000       0.00000000       0.00000000 </v>
   <v>       0.00000000       0.00000000       0.00000000 </v>
   <v>       0.00000000       0.00000000       0.00000000 </v>
   <v>       0.00000000       0.00000000       0.00000000 </v>
   <v>       0.00000000       0.00000000       0.00000000 </v>
   <v>       0.00000000       0.00000000       0.00000000 </v>
   <v>       0.00000000       0.00000000       0.00000000 </v>
   <v>       0.00000000       0.00000000       0.00000000 </v>
   <v>       0.00000000       0.00000000       0.00000000 </v>
   <v>       0.00000000       0.00000000       0.00000000 </v>
   <v>       0.00000000       0.00000000       0.00000000 </v>
   <v>       0.00000000       0.00000000       0.00000000 </v>
   <v>       0.00000000       0.00000000       0.00000000 </v>
   <v>       0.00000000       0.00000000       0.00000000 </v>
   <v>       0.00000000       0.00000000       0.00000000 </v>
   <v>       0.00000000       0.00000000       0.00000000 </v>
   <v>       0.00000000       0.00000000       0.00000000 </v>
   <v>       0.00000000       0.00000000       0.00000000 </v>
   <v>       0.00000000       0.00000000       0.00000000 </v>
   <v>       0.00000000       0.00000000       0.00000000 </v>
  </varray>
 </structure>
</modeling>
