<?xml version="1.0" encoding="ISO-8859-1"?>
<modeling>
 <generator>
  <i name="program" type="string">vasp </i>
  <i name="version" type="string">5.4.4.18Apr17-6-g9f103f2a35  </i>
  <i name="subversion" type="string">(build Oct 31 2019 15:01:46) complex            parallel </i>
  <i name="platform" type="string">LinuxIFC </i>
  <i name="date" type="string">2024 04 30 </i>
  <i name="time" type="string">01:52:54 </i>
 </generator>
 <incar>
  <i type="int" name="ISTART">     0</i>
  <i type="string" name="PREC">a</i>
  <i type="logical" name="ADDGRID"> T  </i>
  <i type="int" name="IBRION">    -1</i>
  <i name="EDIFF">      0.00000100</i>
  <i name="EDIFFG">     -0.01000000</i>
  <i type="int" name="NSW">     1</i>
  <i type="int" name="ISIF">     2</i>
  <i type="int" name="ISYM">     0</i>
  <i name="ENCUT">    600.00000000</i>
  <i name="POTIM">      1.00000000</i>
  <i type="string" name="LREAL">  Auto</i>
  <i type="int" name="ISMEAR">     0</i>
  <i name="SIGMA">      0.05000000</i>
  <i name="KSPACING">      0.30000000</i>
  <i type="logical" name="KGAMMA"> T  </i>
  <i type="logical" name="LWAVE"> F  </i>
  <i type="logical" name="LCHARG"> F  </i>
  <i type="logical" name="LSCALAPACK"> F  </i>
  <v type="int" name="KPOINT_BSE">    -1     0     0     0</v>
 </incar>
 <structure name="primitive_cell" >
  <crystal>
   <varray name="basis" >
    <v>       9.94194835       0.00000000       0.00000000 </v>
    <v>       0.00000000       9.94194835       0.00000000 </v>
    <v>       0.00000000       0.00000000       9.94194835 </v>
   </varray>
   <i name="volume">    982.68540919 </i>
   <varray name="rec_basis" >
    <v>       0.10058391       0.00000000       0.00000000 </v>
    <v>       0.00000000       0.10058391       0.00000000 </v>
    <v>       0.00000000       0.00000000       0.10058391 </v>
   </varray>
  </crystal>
  <varray name="positions" >
   <v>       0.25277809      -0.43452982      -0.12709692 </v>
   <v>       0.06953510       0.49857527      -0.08507652 </v>
   <v>       0.37171447       0.46633801       0.00712458 </v>
   <v>       0.36620559      -0.26851767      -0.04402228 </v>
   <v>       0.13725188      -0.27732166      -0.02277592 </v>
   <v>       0.38237211      -0.49371182      -0.31130215 </v>
   <v>       0.13589784       0.46104494      -0.30943644 </v>
   <v>       0.26172212      -0.24695977      -0.27954851 </v>
   <v>       0.21211006       0.32120202      -0.15198080 </v>
   <v>       0.22953931      -0.17770305      -0.12132690 </v>
   <v>       0.21585838      -0.42597736       0.12973846 </v>
   <v>       0.07297732       0.38919517      -0.21068441 </v>
   <v>       0.16629892       0.37777587       0.05899486 </v>
   <v>       0.04813755      -0.40662786       0.06335402 </v>
   <v>      -0.01258649      -0.34048351      -0.20682991 </v>
   <v>      -0.45538323      -0.45962049      -0.11350241 </v>
   <v>       0.48928868      -0.29216023      -0.25297802 </v>
   <v>       0.28549132      -0.41493936      -0.44202484 </v>
   <v>       0.35456781      -0.45212431       0.18520208 </v>
   <v>       0.49155368      -0.38110238       0.09309704 </v>
   <v>       0.30224304       0.32449113      -0.36086364 </v>
   <v>       0.48398829      -0.18547601      -0.13178146 </v>
   <v>       0.49515134       0.31483852      -0.16275915 </v>
   <v>       0.02356568      -0.37532938      -0.39421927 </v>
   <v>       0.09794533      -0.11195170      -0.15313243 </v>
   <v>      -0.06779724       0.45408284      -0.24878879 </v>
   <v>      -0.49533008      -0.44501567      -0.38788740 </v>
   <v>       0.23920528      -0.20261437       0.15158756 </v>
   <v>       0.41526171       0.31387836       0.08712679 </v>
   <v>       0.31917165      -0.06653386      -0.19408572 </v>
   <v>       0.23255904      -0.07250856       0.00096658 </v>
   <v>      -0.08098714      -0.31575158       0.02807865 </v>
   <v>       0.40774155      -0.34086812      -0.47045413 </v>
   <v>       0.10343193       0.25511232      -0.31048488 </v>
   <v>      -0.39232296       0.48039422      -0.27827983 </v>
   <v>       0.11625737      -0.16144200      -0.38616825 </v>
   <v>       0.21321557      -0.29507473       0.49945374 </v>
   <v>      -0.00735803       0.25277732      -0.12595273 </v>
   <v>       0.43890696      -0.15034523      -0.36361726 </v>
   <v>       0.27108385       0.48864435       0.45797325 </v>
   <v>      -0.03727771      -0.43648515       0.18417725 </v>
   <v>       0.28348926       0.15725991      -0.25226370 </v>
   <v>       0.32641042       0.42762153       0.27334148 </v>
   <v>       0.44064518      -0.05597342      -0.00691354 </v>
   <v>      -0.15838426       0.43351548      -0.04324657 </v>
   <v>      -0.36546587      -0.22863257      -0.05044102 </v>
   <v>       0.04066660      -0.23678773       0.20639721 </v>
   <v>      -0.12795334      -0.20898609      -0.13315801 </v>
   <v>      -0.36429950       0.39788196       0.03129450 </v>
   <v>      -0.38068002      -0.46562179       0.13655523 </v>
   <v>       0.35373457      -0.36258153       0.31103114 </v>
   <v>      -0.49831770       0.44319811      -0.49671232 </v>
   <v>      -0.07398251       0.33562550       0.10762353 </v>
   <v>       0.31893078       0.14620182       0.06012045 </v>
   <v>       0.09265257       0.39621759       0.27640742 </v>
   <v>      -0.21511757      -0.40884568      -0.15080598 </v>
   <v>      -0.08687481      -0.19647764      -0.34890689 </v>
   <v>      -0.44161574       0.29157321      -0.35827374 </v>
   <v>      -0.03160351       0.39815420      -0.46622418 </v>
   <v>      -0.45572690      -0.18841777       0.15461647 </v>
   <v>      -0.02317243      -0.10086201       0.06763513 </v>
   <v>      -0.43351957      -0.08247606      -0.20140321 </v>
   <v>       0.10757302       0.10709301      -0.15280091 </v>
   <v>      -0.05776340      -0.07047175      -0.23063546 </v>
   <v>       0.42294834       0.10558083      -0.13289651 </v>
   <v>       0.04696202       0.14444685       0.02516822 </v>
   <v>      -0.08839437      -0.35100282      -0.47842497 </v>
   <v>      -0.21879576      -0.30233303      -0.04213523 </v>
   <v>      -0.45317724       0.43953251       0.25369527 </v>
   <v>      -0.40219836      -0.32523567      -0.47025526 </v>
   <v>       0.11959983       0.30441938       0.46857022 </v>
   <v>      -0.37432854       0.23325789      -0.11193712 </v>
   <v>       0.28116401      -0.05192744      -0.45717467 </v>
   <v>       0.10563439      -0.39402696       0.35827683 </v>
   <v>      -0.19020564      -0.41789030      -0.38629889 </v>
   <v>      -0.22467158       0.46439795      -0.29247570 </v>
   <v>      -0.28819840      -0.26056065      -0.28797067 </v>
   <v>       0.29143919       0.03074935      -0.35100218 </v>
   <v>       0.23634235       0.14358684      -0.43047899 </v>
   <v>      -0.27720448       0.35235869      -0.20504685 </v>
   <v>       0.17971310       0.19836276       0.24025197 </v>
   <v>       0.33858773      -0.22660370       0.39885118 </v>
   <v>       0.34799790       0.27670023       0.44359317 </v>
   <v>       0.22953048       0.35591580       0.36162311 </v>
   <v>       0.41289809       0.20771333       0.23320706 </v>
   <v>       0.11828034      -0.01882572       0.17720891 </v>
   <v>      -0.44324444       0.16013860       0.05314411 </v>
   <v>       0.08981166       0.15719658      -0.44010173 </v>
   <v>       0.18017595       0.07181697       0.08655212 </v>
   <v>      -0.09928294       0.43173842       0.26952108 </v>
   <v>      -0.10380842       0.16621251      -0.00452896 </v>
   <v>      -0.26378555      -0.34145679       0.11770489 </v>
   <v>       0.00137396      -0.19176062       0.44582647 </v>
   <v>       0.38756031      -0.03618236       0.23649477 </v>
   <v>      -0.14396065       0.18612526      -0.27436606 </v>
   <v>      -0.38766127      -0.33348558       0.30702981 </v>
   <v>      -0.38637821       0.12843651      -0.21210748 </v>
   <v>       0.22259362      -0.11842679       0.35448914 </v>
   <v>       0.46501124       0.33905856       0.36166469 </v>
   <v>       0.05901770      -0.11588355       0.32138889 </v>
   <v>       0.00777191       0.05295028      -0.33617429 </v>
   <v>       0.42860668       0.07367805       0.13703497 </v>
   <v>      -0.36284158      -0.10951977      -0.43119763 </v>
   <v>       0.46673430       0.07831783      -0.37792357 </v>
   <v>      -0.13614668      -0.26224735       0.28047948 </v>
   <v>      -0.22572088       0.37908409      -0.43269315 </v>
   <v>      -0.11823991       0.03585310      -0.12054644 </v>
   <v>      -0.20901171      -0.14797609       0.12712000 </v>
   <v>      -0.23956160       0.22699295      -0.05933172 </v>
   <v>      -0.12257385      -0.45222040       0.39994291 </v>
   <v>      -0.29293292      -0.02888304      -0.06333667 </v>
   <v>      -0.24669675       0.47697045       0.21693525 </v>
   <v>      -0.09493423       0.18777455      -0.46496265 </v>
   <v>      -0.19551320      -0.26870337       0.48308277 </v>
   <v>      -0.37473318       0.01352776      -0.33038028 </v>
   <v>       0.49065530      -0.15991560       0.37368974 </v>
   <v>      -0.31640292      -0.48692904       0.42678542 </v>
   <v>      -0.37400718      -0.20953003       0.42387865 </v>
   <v>      -0.07680112      -0.04431094       0.24484238 </v>
   <v>      -0.04194449       0.18875028       0.29153957 </v>
   <v>      -0.30616201       0.22878417       0.19112635 </v>
   <v>      -0.21025682      -0.01567546      -0.30312899 </v>
   <v>      -0.12137023      -0.02759500      -0.48754381 </v>
   <v>      -0.41516399       0.25662878       0.38474272 </v>
   <v>       0.04561095       0.05072955       0.45286387 </v>
   <v>      -0.40879683       0.04502010       0.21221858 </v>
   <v>      -0.17283750       0.34297607       0.35306567 </v>
   <v>       0.26638525       0.08345699       0.35502370 </v>
   <v>      -0.20098559       0.07281836       0.07951877 </v>
   <v>      -0.32039473       0.09842994      -0.45252275 </v>
   <v>      -0.48618772       0.05651899       0.41768878 </v>
   <v>      -0.27805309       0.22202222       0.43969065 </v>
   <v>      -0.24473419      -0.01951020       0.22093616 </v>
   <v>      -0.26289723      -0.12360667       0.35347807 </v>
   <v>      -0.24559862       0.08787616       0.34443426 </v>
  </varray>
 </structure>
 <varray name="primitive_index" >
  <v type="int" >        1 </v>
  <v type="int" >      111 </v>
  <v type="int" >       85 </v>
  <v type="int" >       78 </v>
  <v type="int" >      113 </v>
  <v type="int" >       88 </v>
  <v type="int" >      117 </v>
  <v type="int" >      135 </v>
  <v type="int" >       92 </v>
  <v type="int" >       44 </v>
  <v type="int" >      129 </v>
  <v type="int" >       45 </v>
  <v type="int" >        8 </v>
  <v type="int" >       41 </v>
  <v type="int" >       14 </v>
  <v type="int" >       20 </v>
  <v type="int" >      119 </v>
  <v type="int" >       28 </v>
  <v type="int" >       48 </v>
  <v type="int" >       65 </v>
  <v type="int" >        2 </v>
  <v type="int" >       43 </v>
  <v type="int" >      122 </v>
  <v type="int" >      102 </v>
  <v type="int" >       76 </v>
  <v type="int" >       68 </v>
  <v type="int" >       30 </v>
  <v type="int" >       23 </v>
  <v type="int" >       13 </v>
  <v type="int" >      103 </v>
  <v type="int" >       91 </v>
  <v type="int" >      100 </v>
  <v type="int" >       73 </v>
  <v type="int" >       95 </v>
  <v type="int" >       69 </v>
  <v type="int" >       15 </v>
  <v type="int" >       56 </v>
  <v type="int" >      104 </v>
  <v type="int" >       22 </v>
  <v type="int" >       81 </v>
  <v type="int" >      114 </v>
  <v type="int" >      130 </v>
  <v type="int" >      107 </v>
  <v type="int" >       96 </v>
  <v type="int" >       19 </v>
  <v type="int" >       80 </v>
  <v type="int" >       77 </v>
  <v type="int" >       55 </v>
  <v type="int" >       59 </v>
  <v type="int" >       40 </v>
  <v type="int" >      126 </v>
  <v type="int" >       64 </v>
  <v type="int" >       75 </v>
  <v type="int" >       84 </v>
  <v type="int" >       71 </v>
  <v type="int" >       67 </v>
  <v type="int" >      105 </v>
  <v type="int" >        5 </v>
  <v type="int" >        4 </v>
  <v type="int" >        7 </v>
  <v type="int" >       11 </v>
  <v type="int" >      112 </v>
  <v type="int" >       21 </v>
  <v type="int" >       38 </v>
  <v type="int" >        6 </v>
  <v type="int" >      108 </v>
  <v type="int" >       32 </v>
  <v type="int" >       49 </v>
  <v type="int" >       58 </v>
  <v type="int" >      101 </v>
  <v type="int" >       99 </v>
  <v type="int" >       42 </v>
  <v type="int" >      110 </v>
  <v type="int" >       18 </v>
  <v type="int" >       89 </v>
  <v type="int" >       36 </v>
  <v type="int" >       25 </v>
  <v type="int" >       29 </v>
  <v type="int" >       82 </v>
  <v type="int" >       83 </v>
  <v type="int" >       98 </v>
  <v type="int" >       54 </v>
  <v type="int" >      123 </v>
  <v type="int" >       50 </v>
  <v type="int" >       90 </v>
  <v type="int" >      106 </v>
  <v type="int" >      116 </v>
  <v type="int" >       35 </v>
  <v type="int" >       53 </v>
  <v type="int" >       46 </v>
  <v type="int" >       34 </v>
  <v type="int" >       74 </v>
  <v type="int" >       63 </v>
  <v type="int" >      127 </v>
  <v type="int" >       24 </v>
  <v type="int" >      120 </v>
  <v type="int" >      132 </v>
  <v type="int" >       72 </v>
  <v type="int" >       31 </v>
  <v type="int" >       52 </v>
  <v type="int" >      124 </v>
  <v type="int" >       47 </v>
  <v type="int" >       61 </v>
  <v type="int" >       94 </v>
  <v type="int" >       26 </v>
  <v type="int" >       66 </v>
  <v type="int" >       87 </v>
  <v type="int" >      131 </v>
  <v type="int" >      115 </v>
  <v type="int" >       62 </v>
  <v type="int" >       27 </v>
  <v type="int" >       86 </v>
  <v type="int" >       70 </v>
  <v type="int" >      133 </v>
  <v type="int" >       51 </v>
  <v type="int" >      134 </v>
  <v type="int" >        3 </v>
  <v type="int" >       37 </v>
  <v type="int" >       57 </v>
  <v type="int" >        9 </v>
  <v type="int" >       16 </v>
  <v type="int" >       97 </v>
  <v type="int" >       12 </v>
  <v type="int" >      109 </v>
  <v type="int" >       93 </v>
  <v type="int" >       60 </v>
  <v type="int" >       79 </v>
  <v type="int" >       10 </v>
  <v type="int" >      128 </v>
  <v type="int" >      118 </v>
  <v type="int" >       17 </v>
  <v type="int" >       33 </v>
  <v type="int" >       39 </v>
  <v type="int" >      125 </v>
  <v type="int" >      121 </v>
 </varray>
 <kpoints>
  <generation param="Gamma">
   <v type="int" name="divisions">       3        3        3 </v>
   <v name="usershift">      0.00000000       0.00000000       0.00000000 </v>
   <v name="genvec1">      0.33333333       0.00000000       0.00000000 </v>
   <v name="genvec2">      0.00000000       0.33333333       0.00000000 </v>
   <v name="genvec3">      0.00000000       0.00000000       0.33333333 </v>
   <v name="shift">      0.00000000       0.00000000       0.00000000 </v>
  </generation>
  <varray name="kpointlist" >
   <v>       0.00000000       0.00000000       0.00000000 </v>
   <v>       0.33333333       0.00000000       0.00000000 </v>
   <v>       0.00000000       0.33333333       0.00000000 </v>
   <v>       0.33333333       0.33333333       0.00000000 </v>
   <v>      -0.33333333       0.33333333       0.00000000 </v>
   <v>       0.00000000       0.00000000       0.33333333 </v>
   <v>       0.33333333       0.00000000       0.33333333 </v>
   <v>      -0.33333333       0.00000000       0.33333333 </v>
   <v>       0.00000000       0.33333333       0.33333333 </v>
   <v>       0.33333333       0.33333333       0.33333333 </v>
   <v>      -0.33333333       0.33333333       0.33333333 </v>
   <v>       0.00000000      -0.33333333       0.33333333 </v>
   <v>       0.33333333      -0.33333333       0.33333333 </v>
   <v>      -0.33333333      -0.33333333       0.33333333 </v>
  </varray>
  <varray name="weights" >
   <v>       0.03703704 </v>
   <v>       0.07407407 </v>
   <v>       0.07407407 </v>
   <v>       0.07407407 </v>
   <v>       0.07407407 </v>
   <v>       0.07407407 </v>
   <v>       0.07407407 </v>
   <v>       0.07407407 </v>
   <v>       0.07407407 </v>
   <v>       0.07407407 </v>
   <v>       0.07407407 </v>
   <v>       0.07407407 </v>
   <v>       0.07407407 </v>
   <v>       0.07407407 </v>
  </varray>
 </kpoints>
 <parameters>
  <separator name="general" >
   <i type="string" name="SYSTEM">unknown system</i>
   <i type="logical" name="LCOMPAT"> F  </i>
  </separator>
  <separator name="electronic" >
   <i type="string" name="PREC">a</i>
   <i name="ENMAX">    600.00000000</i>
   <i name="ENAUG">    605.39200000</i>
   <i name="EDIFF">      0.00000100</i>
   <i type="int" name="IALGO">    38</i>
   <i type="int" name="IWAVPR">    10</i>
   <i type="int" name="NBANDS">   520</i>
   <i name="NELECT">    864.00000000</i>
   <i type="int" name="TURBO">     0</i>
   <i type="int" name="IRESTART">     0</i>
   <i type="int" name="NREBOOT">     0</i>
   <i type="int" name="NMIN">     0</i>
   <i name="EREF">      0.00000000</i>
   <separator name="electronic smearing" >
    <i type="int" name="ISMEAR">     0</i>
    <i name="SIGMA">      0.05000000</i>
    <i name="KSPACING">      0.30000000</i>
    <i type="logical" name="KGAMMA"> T  </i>
   </separator>
   <separator name="electronic projectors" >
    <i type="logical" name="LREAL"> T  </i>
    <v name="ROPT">     -0.00025000     -0.00025000     -0.00025000</v>
    <i type="int" name="LMAXPAW">  -100</i>
    <i type="int" name="LMAXMIX">     2</i>
    <i type="logical" name="NLSPLINE"> F  </i>
   </separator>
   <separator name="electronic startup" >
    <i type="int" name="ISTART">     0</i>
    <i type="int" name="ICHARG">     2</i>
    <i type="int" name="INIWAV">     1</i>
   </separator>
   <separator name="electronic spin" >
    <i type="int" name="ISPIN">     1</i>
    <i type="logical" name="LNONCOLLINEAR"> F  </i>
    <v name="MAGMOM">      1.00000000      1.00000000      1.00000000      1.00000000      1.00000000      1.00000000      1.00000000      1.00000000      1.00000000      1.00000000      1.00000000      1.00000000      1.00000000      1.00000000      1.00000000      1.00000000      1.00000000      1.00000000      1.00000000      1.00000000
      1.00000000      1.00000000      1.00000000      1.00000000      1.00000000      1.00000000      1.00000000      1.00000000      1.00000000      1.00000000      1.00000000      1.00000000      1.00000000      1.00000000      1.00000000      1.00000000      1.00000000      1.00000000      1.00000000      1.00000000
      1.00000000      1.00000000      1.00000000      1.00000000      1.00000000      1.00000000      1.00000000      1.00000000      1.00000000      1.00000000      1.00000000      1.00000000      1.00000000      1.00000000      1.00000000      1.00000000      1.00000000      1.00000000      1.00000000      1.00000000
      1.00000000      1.00000000      1.00000000      1.00000000      1.00000000      1.00000000      1.00000000      1.00000000      1.00000000      1.00000000      1.00000000      1.00000000      1.00000000      1.00000000      1.00000000      1.00000000      1.00000000      1.00000000      1.00000000      1.00000000
      1.00000000      1.00000000      1.00000000      1.00000000      1.00000000      1.00000000      1.00000000      1.00000000      1.00000000      1.00000000      1.00000000      1.00000000      1.00000000      1.00000000      1.00000000      1.00000000      1.00000000      1.00000000      1.00000000      1.00000000
      1.00000000      1.00000000      1.00000000      1.00000000      1.00000000      1.00000000      1.00000000      1.00000000      1.00000000      1.00000000      1.00000000      1.00000000      1.00000000      1.00000000      1.00000000      1.00000000      1.00000000      1.00000000      1.00000000      1.00000000
      1.00000000      1.00000000      1.00000000      1.00000000      1.00000000      1.00000000      1.00000000      1.00000000      1.00000000      1.00000000      1.00000000      1.00000000      1.00000000      1.00000000      1.00000000</v>
    <i name="NUPDOWN">     -1.00000000</i>
    <i type="logical" name="LSORBIT"> F  </i>
    <v name="SAXIS">      0.00000000      0.00000000      1.00000000</v>
    <i type="logical" name="LSPIRAL"> F  </i>
    <v name="QSPIRAL">      0.00000000      0.00000000      0.00000000</v>
    <i type="logical" name="LZEROZ"> F  </i>
   </separator>
   <separator name="electronic exchange-correlation" >
    <i type="logical" name="LASPH"> F  </i>
    <i type="logical" name="LMETAGGA"> F  </i>
   </separator>
   <separator name="electronic convergence" >
    <i type="int" name="NELM">    60</i>
    <i type="int" name="NELMDL">    -5</i>
    <i type="int" name="NELMIN">     2</i>
    <i name="ENINI">    600.00000000</i>
    <separator name="electronic convergence detail" >
     <i type="logical" name="LDIAG"> T  </i>
     <i type="logical" name="LSUBROT"> F  </i>
     <i name="WEIMIN">      0.00000000</i>
     <i name="EBREAK">      0.00000000</i>
     <i name="DEPER">      0.30000000</i>
     <i type="int" name="NRMM">     4</i>
     <i name="TIME">      0.40000000</i>
    </separator>
   </separator>
   <separator name="electronic mixer" >
    <i name="AMIX">      0.40000000</i>
    <i name="BMIX">      1.00000000</i>
    <i name="AMIN">      0.10000000</i>
    <i name="AMIX_MAG">      1.60000000</i>
    <i name="BMIX_MAG">      1.00000000</i>
    <separator name="electronic mixer details" >
     <i type="int" name="IMIX">     4</i>
     <i type="logical" name="MIXFIRST"> F  </i>
     <i type="int" name="MAXMIX">   -45</i>
     <i name="WC">    100.00000000</i>
     <i type="int" name="INIMIX">     1</i>
     <i type="int" name="MIXPRE">     1</i>
     <i type="int" name="MREMOVE">     5</i>
    </separator>
   </separator>
   <separator name="electronic dipolcorrection" >
    <i type="logical" name="LDIPOL"> F  </i>
    <i type="logical" name="LMONO"> F  </i>
    <i type="int" name="IDIPOL">     0</i>
    <i name="EPSILON">      1.00000000</i>
    <v name="DIPOL">   -100.00000000   -100.00000000   -100.00000000</v>
    <i name="EFIELD">      0.00000000</i>
   </separator>
  </separator>
  <separator name="grids" >
   <i type="int" name="NGX">    80</i>
   <i type="int" name="NGY">    80</i>
   <i type="int" name="NGZ">    80</i>
   <i type="int" name="NGXF">   160</i>
   <i type="int" name="NGYF">   160</i>
   <i type="int" name="NGZF">   160</i>
   <i type="logical" name="ADDGRID"> T  </i>
  </separator>
  <separator name="ionic" >
   <i type="int" name="NSW">     1</i>
   <i type="int" name="IBRION">    -1</i>
   <i type="int" name="MDALGO">     0</i>
   <i type="int" name="ISIF">     2</i>
   <i name="PSTRESS">      0.00000000</i>
   <i name="EDIFFG">     -0.01000000</i>
   <i type="int" name="NFREE">     0</i>
   <i name="POTIM">      1.00000000</i>
   <i name="SMASS">     -3.00000000</i>
   <i name="SCALEE">      1.00000000</i>
  </separator>
  <separator name="ionic md" >
   <i name="TEBEG">      0.00010000</i>
   <i name="TEEND">      0.00010000</i>
   <i type="int" name="NBLOCK">     1</i>
   <i type="int" name="KBLOCK">     1</i>
   <i type="int" name="NPACO">   256</i>
   <i name="APACO">     16.00000000</i>
  </separator>
  <separator name="symmetry" >
   <i type="int" name="ISYM">     0</i>
   <i name="SYMPREC">      0.00001000</i>
  </separator>
  <separator name="dos" >
   <i type="int" name="LORBIT">     0</i>
   <v name="RWIGS">     -1.00000000     -1.00000000     -1.00000000</v>
   <i type="int" name="NEDOS">   301</i>
   <i name="EMIN">     10.00000000</i>
   <i name="EMAX">    -10.00000000</i>
   <i name="EFERMI">      0.00000000</i>
  </separator>
  <separator name="writing" >
   <i type="int" name="NWRITE">     2</i>
   <i type="logical" name="LWAVE"> F  </i>
   <i type="logical" name="LDOWNSAMPLE"> F  </i>
   <i type="logical" name="LCHARG"> F  </i>
   <i type="logical" name="LPARD"> F  </i>
   <i type="logical" name="LVTOT"> F  </i>
   <i type="logical" name="LVHAR"> F  </i>
   <i type="logical" name="LELF"> F  </i>
   <i type="logical" name="LOPTICS"> F  </i>
   <v name="STM">      0.00000000      0.00000000      0.00000000      0.00000000      0.00000000      0.00000000      0.00000000</v>
  </separator>
  <separator name="performance" >
   <i type="int" name="NPAR">     4</i>
   <i type="int" name="NSIM">     4</i>
   <i type="int" name="NBLK">    -1</i>
   <i type="logical" name="LPLANE"> T  </i>
   <i type="logical" name="LSCALAPACK"> F  </i>
   <i type="logical" name="LSCAAWARE"> F  </i>
   <i type="logical" name="LSCALU"> F  </i>
   <i type="logical" name="LASYNC"> F  </i>
   <i type="logical" name="LORBITALREAL"> F  </i>
  </separator>
  <separator name="miscellaneous" >
   <i type="int" name="IDIOT">     3</i>
   <i type="int" name="ISPECIAL">     0</i>
   <i type="logical" name="LMUSIC"> F  </i>
   <v name="POMASS">     40.07800000     28.08500000     16.00000000</v>
   <v name="DARWINR">      0.00000000      0.00000000      0.00000000</v>
   <v name="DARWINV">      1.00000000      1.00000000      1.00000000</v>
   <i type="logical" name="LCORR"> T  </i>
  </separator>
  <i type="logical" name="GGA_COMPAT"> T  </i>
  <i type="logical" name="LBERRY"> F  </i>
  <i type="int" name="ICORELEVEL">     0</i>
  <i type="logical" name="LDAU"> F  </i>
  <i type="int" name="I_CONSTRAINED_M">     0</i>
  <separator name="electronic exchange-correlation" >
   <i type="string" name="GGA">--</i>
   <i type="int" name="VOSKOWN">     0</i>
   <i type="logical" name="LHFCALC"> F  </i>
   <i type="string" name="PRECFOCK"></i>
   <i type="logical" name="LSYMGRAD"> F  </i>
   <i type="logical" name="LHFONE"> F  </i>
   <i type="logical" name="LRHFCALC"> F  </i>
   <i type="logical" name="LTHOMAS"> F  </i>
   <i type="logical" name="LMODELHF"> F  </i>
   <i name="ENCUT4O">     -1.00000000</i>
   <i type="int" name="EXXOEP">     0</i>
   <i type="int" name="FOURORBIT">     0</i>
   <i name="AEXX">      0.00000000</i>
   <i name="HFALPHA">      0.00000000</i>
   <i name="MCALPHA">      0.00000000</i>
   <i name="ALDAX">      1.00000000</i>
   <i name="AGGAX">      1.00000000</i>
   <i name="ALDAC">      1.00000000</i>
   <i name="AGGAC">      1.00000000</i>
   <i type="int" name="NKREDX">     1</i>
   <i type="int" name="NKREDY">     1</i>
   <i type="int" name="NKREDZ">     1</i>
   <i type="logical" name="SHIFTRED"> F  </i>
   <i type="logical" name="ODDONLY"> F  </i>
   <i type="logical" name="EVENONLY"> F  </i>
   <i type="int" name="LMAXFOCK">     0</i>
   <i type="int" name="NMAXFOCKAE">     0</i>
   <i type="logical" name="LFOCKAEDFT"> F  </i>
   <i name="HFSCREEN">      0.00000000</i>
   <i name="HFSCREENC">      0.00000000</i>
   <i type="int" name="NBANDSGWLOW">     0</i>
  </separator>
  <separator name="vdW DFT" >
   <i type="logical" name="LUSE_VDW"> F  </i>
   <i name="Zab_VDW">     -0.84910000</i>
   <i name="PARAM1">      0.12340000</i>
   <i name="PARAM2">      1.00000000</i>
   <i name="PARAM3">      0.00000000</i>
  </separator>
  <separator name="model GW" >
   <i type="int" name="MODEL_GW">     0</i>
   <i name="MODEL_EPS0">      4.36749071</i>
   <i name="MODEL_ALPHA">      1.00000000</i>
  </separator>
  <separator name="linear response parameters" >
   <i type="logical" name="LEPSILON"> F  </i>
   <i type="logical" name="LRPA"> F  </i>
   <i type="logical" name="LNABLA"> F  </i>
   <i type="logical" name="LVEL"> F  </i>
   <i type="int" name="KINTER">     0</i>
   <i name="CSHIFT">      0.10000000</i>
   <i name="OMEGAMAX">     -1.00000000</i>
   <i name="DEG_THRESHOLD">      0.00200000</i>
   <i name="RTIME">     -0.10000000</i>
   <i name="WPLASMAI">      0.00000000</i>
   <v name="DFIELD">      0.00000000      0.00000000      0.00000000</v>
   <v name="WPLASMA">      0.00000000      0.00000000      0.00000000      0.00000000      0.00000000      0.00000000      0.00000000      0.00000000      0.00000000</v>
  </separator>
  <separator name="orbital magnetization" >
   <i type="logical" name="NUCIND"> F  </i>
   <v name="MAGPOS">      0.00000000      0.00000000      0.00000000</v>
   <i type="logical" name="LNICSALL"> T  </i>
   <i type="logical" name="ORBITALMAG"> F  </i>
   <i type="logical" name="LMAGBLOCH"> F  </i>
   <i type="logical" name="LCHIMAG"> F  </i>
   <i type="logical" name="LGAUGE"> T  </i>
   <i type="int" name="MAGATOM">     0</i>
   <v name="MAGDIPOL">      0.00000000      0.00000000      0.00000000</v>
   <v name="AVECCONST">      0.00000000      0.00000000      0.00000000</v>
  </separator>
  <separator name="response functions" >
   <i type="logical" name="LADDER"> F  </i>
   <i type="logical" name="LRPAFORCE"> F  </i>
   <i type="logical" name="LFXC"> F  </i>
   <i type="logical" name="LHARTREE"> T  </i>
   <i type="int" name="IBSE">     0</i>
   <v type="int" name="KPOINT">    -1     0     0     0</v>
   <i type="logical" name="LTCTE"> F  </i>
   <i type="logical" name="LTETE"> F  </i>
   <i type="logical" name="LTRIPLET"> F  </i>
   <i type="logical" name="LFXCEPS"> F  </i>
   <i type="logical" name="LFXHEG"> F  </i>
   <i type="int" name="NATURALO">     2</i>
   <i type="logical" name="L2ORDER"> F  </i>
   <i type="logical" name="LMP2LT"> F  </i>
   <i type="logical" name="LUSEW"> F  </i>
   <i name="ENCUTGW">     -2.00000000</i>
   <i name="ENCUTGWSOFT">     -2.00000000</i>
   <i name="ENCUTLF">     -1.00000000</i>
   <i type="int" name="LMAXMP2">    -1</i>
   <i name="SCISSOR">      0.00000000</i>
   <i type="int" name="NOMEGA">     0</i>
   <i type="int" name="NOMEGAR">     0</i>
   <i type="int" name="NBANDSGW">    -1</i>
   <i type="int" name="NBANDSO">    -1</i>
   <i type="int" name="NBANDSV">    -1</i>
   <i type="int" name="NELM">     1</i>
   <i type="int" name="NELMHF">     1</i>
   <i type="int" name="DIM">     3</i>
   <i type="int" name="ANTIRES">     0</i>
   <i name="OMEGAMAX">    -30.00000000</i>
   <i name="OMEGAMIN">    -30.00000000</i>
   <i name="OMEGATL">   -200.00000000</i>
   <i type="int" name="OMEGAGRID">   140</i>
   <i name="CSHIFT">     -0.10000000</i>
   <i type="logical" name="SELFENERGY"> F  </i>
   <i type="logical" name="LSPECTRAL"> F  </i>
   <i type="logical" name="LSPECTRALGW"> F  </i>
   <i type="logical" name="LSINGLES"> F  </i>
   <i type="logical" name="LFERMIGW"> F  </i>
   <i type="logical" name="ODDONLYGW"> F  </i>
   <i type="logical" name="EVENONLYGW"> F  </i>
   <i type="int" name="NKREDLFX">     1</i>
   <i type="int" name="NKREDLFY">     1</i>
   <i type="int" name="NKREDLFZ">     1</i>
   <i type="int" name="MAXMEM">  2800</i>
   <i type="int" name="TELESCOPE">     0</i>
   <i type="int" name="TAUPAR">     1</i>
   <i type="int" name="OMEGAPAR">    -1</i>
   <i name="LAMBDA">      1.00000000</i>
  </separator>
  <separator name="External order field" >
   <i name="OFIELD_KAPPA">      0.00000000</i>
   <v name="OFIELD_K">      0.00000000      0.00000000      0.00000000</v>
   <i name="OFIELD_Q6_NEAR">      0.00000000</i>
   <i name="OFIELD_Q6_FAR">      0.00000000</i>
   <i name="OFIELD_A">      0.00000000</i>
  </separator>
 </parameters>
 <atominfo>
  <atoms>     135 </atoms>
  <types>       3 </types>
  <array name="atoms" >
   <dimension dim="1">ion</dimension>
   <field type="string">element</field>
   <field type="int">atomtype</field>
   <set>
    <rc><c>Ca</c><c>   1</c></rc>
    <rc><c>Ca</c><c>   1</c></rc>
    <rc><c>Ca</c><c>   1</c></rc>
    <rc><c>Ca</c><c>   1</c></rc>
    <rc><c>Ca</c><c>   1</c></rc>
    <rc><c>Ca</c><c>   1</c></rc>
    <rc><c>Ca</c><c>   1</c></rc>
    <rc><c>Ca</c><c>   1</c></rc>
    <rc><c>Ca</c><c>   1</c></rc>
    <rc><c>Ca</c><c>   1</c></rc>
    <rc><c>Ca</c><c>   1</c></rc>
    <rc><c>Ca</c><c>   1</c></rc>
    <rc><c>Ca</c><c>   1</c></rc>
    <rc><c>Ca</c><c>   1</c></rc>
    <rc><c>Ca</c><c>   1</c></rc>
    <rc><c>Ca</c><c>   1</c></rc>
    <rc><c>Ca</c><c>   1</c></rc>
    <rc><c>Ca</c><c>   1</c></rc>
    <rc><c>Ca</c><c>   1</c></rc>
    <rc><c>Ca</c><c>   1</c></rc>
    <rc><c>Ca</c><c>   1</c></rc>
    <rc><c>Ca</c><c>   1</c></rc>
    <rc><c>Ca</c><c>   1</c></rc>
    <rc><c>Ca</c><c>   1</c></rc>
    <rc><c>Ca</c><c>   1</c></rc>
    <rc><c>Ca</c><c>   1</c></rc>
    <rc><c>Ca</c><c>   1</c></rc>
    <rc><c>Si</c><c>   2</c></rc>
    <rc><c>Si</c><c>   2</c></rc>
    <rc><c>Si</c><c>   2</c></rc>
    <rc><c>Si</c><c>   2</c></rc>
    <rc><c>Si</c><c>   2</c></rc>
    <rc><c>Si</c><c>   2</c></rc>
    <rc><c>Si</c><c>   2</c></rc>
    <rc><c>Si</c><c>   2</c></rc>
    <rc><c>Si</c><c>   2</c></rc>
    <rc><c>Si</c><c>   2</c></rc>
    <rc><c>Si</c><c>   2</c></rc>
    <rc><c>Si</c><c>   2</c></rc>
    <rc><c>Si</c><c>   2</c></rc>
    <rc><c>Si</c><c>   2</c></rc>
    <rc><c>Si</c><c>   2</c></rc>
    <rc><c>Si</c><c>   2</c></rc>
    <rc><c>Si</c><c>   2</c></rc>
    <rc><c>Si</c><c>   2</c></rc>
    <rc><c>Si</c><c>   2</c></rc>
    <rc><c>Si</c><c>   2</c></rc>
    <rc><c>Si</c><c>   2</c></rc>
    <rc><c>Si</c><c>   2</c></rc>
    <rc><c>Si</c><c>   2</c></rc>
    <rc><c>Si</c><c>   2</c></rc>
    <rc><c>Si</c><c>   2</c></rc>
    <rc><c>Si</c><c>   2</c></rc>
    <rc><c>Si</c><c>   2</c></rc>
    <rc><c>O </c><c>   3</c></rc>
    <rc><c>O </c><c>   3</c></rc>
    <rc><c>O </c><c>   3</c></rc>
    <rc><c>O </c><c>   3</c></rc>
    <rc><c>O </c><c>   3</c></rc>
    <rc><c>O </c><c>   3</c></rc>
    <rc><c>O </c><c>   3</c></rc>
    <rc><c>O </c><c>   3</c></rc>
    <rc><c>O </c><c>   3</c></rc>
    <rc><c>O </c><c>   3</c></rc>
    <rc><c>O </c><c>   3</c></rc>
    <rc><c>O </c><c>   3</c></rc>
    <rc><c>O </c><c>   3</c></rc>
    <rc><c>O </c><c>   3</c></rc>
    <rc><c>O </c><c>   3</c></rc>
    <rc><c>O </c><c>   3</c></rc>
    <rc><c>O </c><c>   3</c></rc>
    <rc><c>O </c><c>   3</c></rc>
    <rc><c>O </c><c>   3</c></rc>
    <rc><c>O </c><c>   3</c></rc>
    <rc><c>O </c><c>   3</c></rc>
    <rc><c>O </c><c>   3</c></rc>
    <rc><c>O </c><c>   3</c></rc>
    <rc><c>O </c><c>   3</c></rc>
    <rc><c>O </c><c>   3</c></rc>
    <rc><c>O </c><c>   3</c></rc>
    <rc><c>O </c><c>   3</c></rc>
    <rc><c>O </c><c>   3</c></rc>
    <rc><c>O </c><c>   3</c></rc>
    <rc><c>O </c><c>   3</c></rc>
    <rc><c>O </c><c>   3</c></rc>
    <rc><c>O </c><c>   3</c></rc>
    <rc><c>O </c><c>   3</c></rc>
    <rc><c>O </c><c>   3</c></rc>
    <rc><c>O </c><c>   3</c></rc>
    <rc><c>O </c><c>   3</c></rc>
    <rc><c>O </c><c>   3</c></rc>
    <rc><c>O </c><c>   3</c></rc>
    <rc><c>O </c><c>   3</c></rc>
    <rc><c>O </c><c>   3</c></rc>
    <rc><c>O </c><c>   3</c></rc>
    <rc><c>O </c><c>   3</c></rc>
    <rc><c>O </c><c>   3</c></rc>
    <rc><c>O </c><c>   3</c></rc>
    <rc><c>O </c><c>   3</c></rc>
    <rc><c>O </c><c>   3</c></rc>
    <rc><c>O </c><c>   3</c></rc>
    <rc><c>O </c><c>   3</c></rc>
    <rc><c>O </c><c>   3</c></rc>
    <rc><c>O </c><c>   3</c></rc>
    <rc><c>O </c><c>   3</c></rc>
    <rc><c>O </c><c>   3</c></rc>
    <rc><c>O </c><c>   3</c></rc>
    <rc><c>O </c><c>   3</c></rc>
    <rc><c>O </c><c>   3</c></rc>
    <rc><c>O </c><c>   3</c></rc>
    <rc><c>O </c><c>   3</c></rc>
    <rc><c>O </c><c>   3</c></rc>
    <rc><c>O </c><c>   3</c></rc>
    <rc><c>O </c><c>   3</c></rc>
    <rc><c>O </c><c>   3</c></rc>
    <rc><c>O </c><c>   3</c></rc>
    <rc><c>O </c><c>   3</c></rc>
    <rc><c>O </c><c>   3</c></rc>
    <rc><c>O </c><c>   3</c></rc>
    <rc><c>O </c><c>   3</c></rc>
    <rc><c>O </c><c>   3</c></rc>
    <rc><c>O </c><c>   3</c></rc>
    <rc><c>O </c><c>   3</c></rc>
    <rc><c>O </c><c>   3</c></rc>
    <rc><c>O </c><c>   3</c></rc>
    <rc><c>O </c><c>   3</c></rc>
    <rc><c>O </c><c>   3</c></rc>
    <rc><c>O </c><c>   3</c></rc>
    <rc><c>O </c><c>   3</c></rc>
    <rc><c>O </c><c>   3</c></rc>
    <rc><c>O </c><c>   3</c></rc>
    <rc><c>O </c><c>   3</c></rc>
    <rc><c>O </c><c>   3</c></rc>
    <rc><c>O </c><c>   3</c></rc>
    <rc><c>O </c><c>   3</c></rc>
   </set>
  </array>
  <array name="atomtypes" >
   <dimension dim="1">type</dimension>
   <field type="int">atomspertype</field>
   <field type="string">element</field>
   <field>mass</field>
   <field>valence</field>
   <field type="string">pseudopotential</field>
   <set>
    <rc><c>  27</c><c>Ca</c><c>     40.07800000</c><c>     10.00000000</c><c>  PAW_PBE Ca_sv 06Sep2000               </c></rc>
    <rc><c>  27</c><c>Si</c><c>     28.08500000</c><c>      4.00000000</c><c>  PAW_PBE Si 05Jan2001                  </c></rc>
    <rc><c>  81</c><c>O </c><c>     16.00000000</c><c>      6.00000000</c><c>  PAW_PBE O 08Apr2002                   </c></rc>
   </set>
  </array>
 </atominfo>
 <structure name="initialpos" >
  <crystal>
   <varray name="basis" >
    <v>       9.94194835       0.00000000       0.00000000 </v>
    <v>       0.00000000       9.94194835       0.00000000 </v>
    <v>       0.00000000       0.00000000       9.94194835 </v>
   </varray>
   <i name="volume">    982.68540919 </i>
   <varray name="rec_basis" >
    <v>       0.10058391       0.00000000       0.00000000 </v>
    <v>       0.00000000       0.10058391       0.00000000 </v>
    <v>       0.00000000       0.00000000       0.10058391 </v>
   </varray>
  </crystal>
  <varray name="positions" >
   <v>       0.25277809       0.56547018       0.87290308 </v>
   <v>       0.30224304       0.32449113       0.63913636 </v>
   <v>       0.68359708       0.51307096       0.42678542 </v>
   <v>       0.96839649       0.39815420       0.53377582 </v>
   <v>       0.55838426       0.29157321       0.64172626 </v>
   <v>       0.42294834       0.10558083       0.86710349 </v>
   <v>       0.54427310       0.81158223       0.15461647 </v>
   <v>       0.16629892       0.37777587       0.05899486 </v>
   <v>       0.95805551       0.18875028       0.29153957 </v>
   <v>       0.26638525       0.08345699       0.35502370 </v>
   <v>       0.97682757       0.89913799       0.06763513 </v>
   <v>       0.87862977       0.97240500       0.51245619 </v>
   <v>       0.41526171       0.31387836       0.08712679 </v>
   <v>       0.98741351       0.65951649       0.79317009 </v>
   <v>       0.11625737       0.83855800       0.61383175 </v>
   <v>       0.69383799       0.22878417       0.19112635 </v>
   <v>       0.51381228       0.05651899       0.41768878 </v>
   <v>       0.10563439       0.60597304       0.35827683 </v>
   <v>       0.84161574       0.43351548       0.95675343 </v>
   <v>       0.54461677       0.54037951       0.88649759 </v>
   <v>       0.10757302       0.10709301       0.84719909 </v>
   <v>       0.43890696       0.84965477       0.63638274 </v>
   <v>       0.23920528       0.79738563       0.15158756 </v>
   <v>       0.85603935       0.18612526       0.72563394 </v>
   <v>       0.71180160       0.73943935       0.71202933 </v>
   <v>       0.86385332       0.73775265       0.28047948 </v>
   <v>       0.70706708       0.97111696       0.93666333 </v>
   <v>       0.28549132       0.58506064       0.55797516 </v>
   <v>       0.29143919       0.03074935       0.64899782 </v>
   <v>       0.50466992       0.55498433       0.61211260 </v>
   <v>       0.46501124       0.33905856       0.36166469 </v>
   <v>       0.91160563       0.64899718       0.52157503 </v>
   <v>       0.72194691       0.22202222       0.43969065 </v>
   <v>       0.89619158       0.16621251       0.99547104 </v>
   <v>       0.08981166       0.15719658       0.55989827 </v>
   <v>       0.77532842       0.46439795       0.70752430 </v>
   <v>       0.62599282       0.79046997       0.42387865 </v>
   <v>       0.94223660       0.92952825       0.76936454 </v>
   <v>       0.75526581       0.98048980       0.22093616 </v>
   <v>       0.61931998       0.53437821       0.13655523 </v>
   <v>       0.04813755       0.59337214       0.06335402 </v>
   <v>       0.62567146       0.23325789       0.88806288 </v>
   <v>       0.48398829       0.81452399       0.86821854 </v>
   <v>       0.22953931       0.82229695       0.87867310 </v>
   <v>       0.07297732       0.38919517       0.78931559 </v>
   <v>       0.90071706       0.43173842       0.26952108 </v>
   <v>       0.42860668       0.07367805       0.13703497 </v>
   <v>       0.35456781       0.54787569       0.18520208 </v>
   <v>       0.78120424       0.69766697       0.95786477 </v>
   <v>       0.22953048       0.35591580       0.36162311 </v>
   <v>       0.62526682       0.01352776       0.66961972 </v>
   <v>       0.05901770       0.88411645       0.32138889 </v>
   <v>       0.18017595       0.07181697       0.08655212 </v>
   <v>       0.33858773       0.77339630       0.39885118 </v>
   <v>       0.87204666       0.79101391       0.86684199 </v>
   <v>       0.21321557       0.70492527       0.49945374 </v>
   <v>       0.92319888       0.95568906       0.24484238 </v>
   <v>       0.54682276       0.43953251       0.25369527 </v>
   <v>       0.63570050       0.39788196       0.03129450 </v>
   <v>       0.59120317       0.04502010       0.21221858 </v>
   <v>       0.63715842       0.89048023       0.56880237 </v>
   <v>       0.87742615       0.54777960       0.39994291 </v>
   <v>       0.00137396       0.80823938       0.44582647 </v>
   <v>       0.50168230       0.44319811       0.50328768 </v>
   <v>       0.49155368       0.61889762       0.09309704 </v>
   <v>       0.77427912       0.37908409       0.56730685 </v>
   <v>       0.78488243       0.59115432       0.84919402 </v>
   <v>       0.93220276       0.45408284       0.75121121 </v>
   <v>       0.60767704       0.48039422       0.72172017 </v>
   <v>       0.90506577       0.18777455       0.53503735 </v>
   <v>       0.09265257       0.39621759       0.27640742 </v>
   <v>       0.22259362       0.88157321       0.35448914 </v>
   <v>       0.40774155       0.65913188       0.52954587 </v>
   <v>       0.73621445       0.65854321       0.11770489 </v>
   <v>       0.92601749       0.33562550       0.10762353 </v>
   <v>       0.09794533       0.88804830       0.84686757 </v>
   <v>       0.04066660       0.76321227       0.20639721 </v>
   <v>       0.36620559       0.73148233       0.95597772 </v>
   <v>       0.82716250       0.34297607       0.35306567 </v>
   <v>       0.63453413       0.77136743       0.94955898 </v>
   <v>       0.27108385       0.48864435       0.45797325 </v>
   <v>       0.23634235       0.14358684       0.56952101 </v>
   <v>       0.72279552       0.35235869       0.79495315 </v>
   <v>       0.31893078       0.14620182       0.06012045 </v>
   <v>       0.37171447       0.46633801       0.00712458 </v>
   <v>       0.75330325       0.47697045       0.21693525 </v>
   <v>       0.88176009       0.03585310       0.87945356 </v>
   <v>       0.38237211       0.50628818       0.68869785 </v>
   <v>       0.80979436       0.58210970       0.61370111 </v>
   <v>       0.41289809       0.20771333       0.23320706 </v>
   <v>       0.23255904       0.92749144       0.00096658 </v>
   <v>       0.21211006       0.32120202       0.84801920 </v>
   <v>       0.04561095       0.05072955       0.45286387 </v>
   <v>       0.46673430       0.07831783       0.62207643 </v>
   <v>       0.10343193       0.25511232       0.68951512 </v>
   <v>       0.44064518       0.94402658       0.99308646 </v>
   <v>       0.78974318       0.98432454       0.69687101 </v>
   <v>       0.17971310       0.19836276       0.24025197 </v>
   <v>       0.11959983       0.30441938       0.46857022 </v>
   <v>       0.91901286       0.68424842       0.02807865 </v>
   <v>       0.59780164       0.67476433       0.52974474 </v>
   <v>       0.02356568       0.62467062       0.60578073 </v>
   <v>       0.31917165       0.93346614       0.80591428 </v>
   <v>       0.99264197       0.25277732       0.87404727 </v>
   <v>       0.91312519       0.80352236       0.65109311 </v>
   <v>       0.11828034       0.98117428       0.17720891 </v>
   <v>       0.32641042       0.42762153       0.27334148 </v>
   <v>       0.04696202       0.14444685       0.02516822 </v>
   <v>       0.58483601       0.25662878       0.38474272 </v>
   <v>       0.28116401       0.94807256       0.54282533 </v>
   <v>       0.06953510       0.49857527       0.91492348 </v>
   <v>       0.56648043       0.91752394       0.79859679 </v>
   <v>       0.13725188       0.72267834       0.97722408 </v>
   <v>       0.96272229       0.56351485       0.18417725 </v>
   <v>       0.76043840       0.22699295       0.94066828 </v>
   <v>       0.55675556       0.16013860       0.05314411 </v>
   <v>       0.13589784       0.46104494       0.69056356 </v>
   <v>       0.67960527       0.09842994       0.54747725 </v>
   <v>       0.48928868       0.70783977       0.74702198 </v>
   <v>       0.61233873       0.66651442       0.30702981 </v>
   <v>       0.75440138       0.08787616       0.34443426 </v>
   <v>       0.49515134       0.31483852       0.83724085 </v>
   <v>       0.34799790       0.27670023       0.44359317 </v>
   <v>       0.00777191       0.05295028       0.66382571 </v>
   <v>       0.73710277       0.87639333       0.35347807 </v>
   <v>       0.35373457       0.63741847       0.31103114 </v>
   <v>       0.38756031       0.96381764       0.23649477 </v>
   <v>       0.79901441       0.07281836       0.07951877 </v>
   <v>       0.21585838       0.57402264       0.12973846 </v>
   <v>       0.28348926       0.15725991       0.74773630 </v>
   <v>       0.79098829       0.85202391       0.12712000 </v>
   <v>       0.61362179       0.12843651       0.78789252 </v>
   <v>       0.80448680       0.73129663       0.48308277 </v>
   <v>       0.49065530       0.84008440       0.37368974 </v>
   <v>       0.26172212       0.75304023       0.72045149 </v>
  </varray>
  <varray name="velocities" >
   <v>       0.00000000       0.00000000       0.00000000 </v>
   <v>       0.00000000       0.00000000       0.00000000 </v>
   <v>       0.00000000       0.00000000       0.00000000 </v>
   <v>       0.00000000       0.00000000       0.00000000 </v>
   <v>       0.00000000       0.00000000       0.00000000 </v>
   <v>       0.00000000       0.00000000       0.00000000 </v>
   <v>       0.00000000       0.00000000       0.00000000 </v>
   <v>       0.00000000       0.00000000       0.00000000 </v>
   <v>       0.00000000       0.00000000       0.00000000 </v>
   <v>       0.00000000       0.00000000       0.00000000 </v>
   <v>       0.00000000       0.00000000       0.00000000 </v>
   <v>       0.00000000       0.00000000       0.00000000 </v>
   <v>       0.00000000       0.00000000       0.00000000 </v>
   <v>       0.00000000       0.00000000       0.00000000 </v>
   <v>       0.00000000       0.00000000       0.00000000 </v>
   <v>       0.00000000       0.00000000       0.00000000 </v>
   <v>       0.00000000       0.00000000       0.00000000 </v>
   <v>       0.00000000       0.00000000       0.00000000 </v>
   <v>       0.00000000       0.00000000       0.00000000 </v>
   <v>       0.00000000       0.00000000       0.00000000 </v>
   <v>       0.00000000       0.00000000       0.00000000 </v>
   <v>       0.00000000       0.00000000       0.00000000 </v>
   <v>       0.00000000       0.00000000       0.00000000 </v>
   <v>       0.00000000       0.00000000       0.00000000 </v>
   <v>       0.00000000       0.00000000       0.00000000 </v>
   <v>       0.00000000       0.00000000       0.00000000 </v>
   <v>       0.00000000       0.00000000       0.00000000 </v>
   <v>       0.00000000       0.00000000       0.00000000 </v>
   <v>       0.00000000       0.00000000       0.00000000 </v>
   <v>       0.00000000       0.00000000       0.00000000 </v>
   <v>       0.00000000       0.00000000       0.00000000 </v>
   <v>       0.00000000       0.00000000       0.00000000 </v>
   <v>       0.00000000       0.00000000       0.00000000 </v>
   <v>       0.00000000       0.00000000       0.00000000 </v>
   <v>       0.00000000       0.00000000       0.00000000 </v>
   <v>       0.00000000       0.00000000       0.00000000 </v>
   <v>       0.00000000       0.00000000       0.00000000 </v>
   <v>       0.00000000       0.00000000       0.00000000 </v>
   <v>       0.00000000       0.00000000       0.00000000 </v>
   <v>       0.00000000       0.00000000       0.00000000 </v>
   <v>       0.00000000       0.00000000       0.00000000 </v>
   <v>       0.00000000       0.00000000       0.00000000 </v>
   <v>       0.00000000       0.00000000       0.00000000 </v>
   <v>       0.00000000       0.00000000       0.00000000 </v>
   <v>       0.00000000       0.00000000       0.00000000 </v>
   <v>       0.00000000       0.00000000       0.00000000 </v>
   <v>       0.00000000       0.00000000       0.00000000 </v>
   <v>       0.00000000       0.00000000       0.00000000 </v>
   <v>       0.00000000       0.00000000       0.00000000 </v>
   <v>       0.00000000       0.00000000       0.00000000 </v>
   <v>       0.00000000       0.00000000       0.00000000 </v>
   <v>       0.00000000       0.00000000       0.00000000 </v>
   <v>       0.00000000       0.00000000       0.00000000 </v>
   <v>       0.00000000       0.00000000       0.00000000 </v>
   <v>       0.00000000       0.00000000       0.00000000 </v>
   <v>       0.00000000       0.00000000       0.00000000 </v>
   <v>       0.00000000       0.00000000       0.00000000 </v>
   <v>       0.00000000       0.00000000       0.00000000 </v>
   <v>       0.00000000       0.00000000       0.00000000 </v>
   <v>       0.00000000       0.00000000       0.00000000 </v>
   <v>       0.00000000       0.00000000       0.00000000 </v>
   <v>       0.00000000       0.00000000       0.00000000 </v>
   <v>       0.00000000       0.00000000       0.00000000 </v>
   <v>       0.00000000       0.00000000       0.00000000 </v>
   <v>       0.00000000       0.00000000       0.00000000 </v>
   <v>       0.00000000       0.00000000       0.00000000 </v>
   <v>       0.00000000       0.00000000       0.00000000 </v>
   <v>       0.00000000       0.00000000       0.00000000 </v>
   <v>       0.00000000       0.00000000       0.00000000 </v>
   <v>       0.00000000       0.00000000       0.00000000 </v>
   <v>       0.00000000       0.00000000       0.00000000 </v>
   <v>       0.00000000       0.00000000       0.00000000 </v>
   <v>       0.00000000       0.00000000       0.00000000 </v>
   <v>       0.00000000       0.00000000       0.00000000 </v>
   <v>       0.00000000       0.00000000       0.00000000 </v>
   <v>       0.00000000       0.00000000       0.00000000 </v>
   <v>       0.00000000       0.00000000       0.00000000 </v>
   <v>       0.00000000       0.00000000       0.00000000 </v>
   <v>       0.00000000       0.00000000       0.00000000 </v>
   <v>       0.00000000       0.00000000       0.00000000 </v>
   <v>       0.00000000       0.00000000       0.00000000 </v>
   <v>       0.00000000       0.00000000       0.00000000 </v>
   <v>       0.00000000       0.00000000       0.00000000 </v>
   <v>       0.00000000       0.00000000       0.00000000 </v>
   <v>       0.00000000       0.00000000       0.00000000 </v>
   <v>       0.00000000       0.00000000       0.00000000 </v>
   <v>       0.00000000       0.00000000       0.00000000 </v>
   <v>       0.00000000       0.00000000       0.00000000 </v>
   <v>       0.00000000       0.00000000       0.00000000 </v>
   <v>       0.00000000       0.00000000       0.00000000 </v>
   <v>       0.00000000       0.00000000       0.00000000 </v>
   <v>       0.00000000       0.00000000       0.00000000 </v>
   <v>       0.00000000       0.00000000       0.00000000 </v>
   <v>       0.00000000       0.00000000       0.00000000 </v>
   <v>       0.00000000       0.00000000       0.00000000 </v>
   <v>       0.00000000       0.00000000       0.00000000 </v>
   <v>       0.00000000       0.00000000       0.00000000 </v>
   <v>       0.00000000       0.00000000       0.00000000 </v>
   <v>       0.00000000       0.00000000       0.00000000 </v>
   <v>       0.00000000       0.00000000       0.00000000 </v>
   <v>       0.00000000       0.00000000       0.00000000 </v>
   <v>       0.00000000       0.00000000       0.00000000 </v>
   <v>       0.00000000       0.00000000       0.00000000 </v>
   <v>       0.00000000       0.00000000       0.00000000 </v>
   <v>       0.00000000       0.00000000       0.00000000 </v>
   <v>       0.00000000       0.00000000       0.00000000 </v>
   <v>       0.00000000       0.00000000       0.00000000 </v>
   <v>       0.00000000       0.00000000       0.00000000 </v>
   <v>       0.00000000       0.00000000       0.00000000 </v>
   <v>       0.00000000       0.00000000       0.00000000 </v>
   <v>       0.00000000       0.00000000       0.00000000 </v>
   <v>       0.00000000       0.00000000       0.00000000 </v>
   <v>       0.00000000       0.00000000       0.00000000 </v>
   <v>       0.00000000       0.00000000       0.00000000 </v>
   <v>       0.00000000       0.00000000       0.00000000 </v>
   <v>       0.00000000       0.00000000       0.00000000 </v>
   <v>       0.00000000       0.00000000       0.00000000 </v>
   <v>       0.00000000       0.00000000       0.00000000 </v>
   <v>       0.00000000       0.00000000       0.00000000 </v>
   <v>       0.00000000       0.00000000       0.00000000 </v>
   <v>       0.00000000       0.00000000       0.00000000 </v>
   <v>       0.00000000       0.00000000       0.00000000 </v>
   <v>       0.00000000       0.00000000       0.00000000 </v>
   <v>       0.00000000       0.00000000       0.00000000 </v>
   <v>       0.00000000       0.00000000       0.00000000 </v>
   <v>       0.00000000       0.00000000       0.00000000 </v>
   <v>       0.00000000       0.00000000       0.00000000 </v>
   <v>       0.00000000       0.00000000       0.00000000 </v>
   <v>       0.00000000       0.00000000       0.00000000 </v>
   <v>       0.00000000       0.00000000       0.00000000 </v>
   <v>       0.00000000       0.00000000       0.00000000 </v>
   <v>       0.00000000       0.00000000       0.00000000 </v>
   <v>       0.00000000       0.00000000       0.00000000 </v>
   <v>       0.00000000       0.00000000       0.00000000 </v>
   <v>       0.00000000       0.00000000       0.00000000 </v>
  </varray>
 </structure>
 <calculation>
  <scstep>
   <time name="dav">   39.23   39.24</time>
   <time name="total">   39.62   39.63</time>
   <energy>
    <i name="alphaZ">   4862.75714100 </i>
    <i name="ewald"> -60058.75135803 </i>
    <i name="hartreedc"> -10630.15349954 </i>
    <i name="XCdc">   3346.76846075 </i>
    <i name="pawpsdc">  50594.51003143 </i>
    <i name="pawaedc"> -49994.65612350 </i>
    <i name="eentropy">     -0.03136407 </i>
    <i name="bandstr">   7955.62173882 </i>
    <i name="atom">  64968.54023382 </i>
    <i name="e_fr_energy">  11044.60526069 </i>
    <i name="e_wo_entrp">  11044.63662476 </i>
    <i name="e_0_energy">  11044.62094273 </i>
   </energy>
  </scstep>
  <scstep>
   <time name="dav">   42.49   42.51</time>
   <time name="total">   42.49   42.51</time>
   <energy>
    <i name="e_fr_energy">    391.94005148 </i>
    <i name="e_wo_entrp">    391.94005148 </i>
    <i name="e_0_energy">    391.94005148 </i>
   </energy>
  </scstep>
  <scstep>
   <time name="dav">   48.91   48.92</time>
   <time name="total">   48.91   48.92</time>
   <energy>
    <i name="e_fr_energy">   -834.42496075 </i>
    <i name="e_wo_entrp">   -834.42496075 </i>
    <i name="e_0_energy">   -834.42496075 </i>
   </energy>
  </scstep>
  <scstep>
   <time name="dav">   53.37   53.39</time>
   <time name="total">   53.37   53.39</time>
   <energy>
    <i name="e_fr_energy">   -903.30397703 </i>
    <i name="e_wo_entrp">   -903.30397703 </i>
    <i name="e_0_energy">   -903.30397703 </i>
   </energy>
  </scstep>
  <scstep>
   <time name="dav">   55.52   55.53</time>
   <time name="total">   56.52   56.53</time>
   <energy>
    <i name="e_fr_energy">   -907.72625744 </i>
    <i name="e_wo_entrp">   -907.72625744 </i>
    <i name="e_0_energy">   -907.72625744 </i>
   </energy>
  </scstep>
  <scstep>
   <time name="dav">   45.16   45.17</time>
   <time name="total">   46.55   46.57</time>
   <energy>
    <i name="e_fr_energy">   -763.17601372 </i>
    <i name="e_wo_entrp">   -763.17601372 </i>
    <i name="e_0_energy">   -763.17601372 </i>
   </energy>
  </scstep>
  <scstep>
   <time name="dav">   44.41   44.42</time>
   <time name="total">   45.79   45.81</time>
   <energy>
    <i name="e_fr_energy">   -763.93902660 </i>
    <i name="e_wo_entrp">   -763.93902660 </i>
    <i name="e_0_energy">   -763.93902660 </i>
   </energy>
  </scstep>
  <scstep>
   <time name="dav">   47.17   47.17</time>
   <time name="total">   48.55   48.57</time>
   <energy>
    <i name="e_fr_energy">   -763.43073497 </i>
    <i name="e_wo_entrp">   -763.43073497 </i>
    <i name="e_0_energy">   -763.43073497 </i>
   </energy>
  </scstep>
  <scstep>
   <time name="dav">   45.39   45.39</time>
   <time name="total">   46.81   46.82</time>
   <energy>
    <i name="e_fr_energy">   -763.22885366 </i>
    <i name="e_wo_entrp">   -763.22885366 </i>
    <i name="e_0_energy">   -763.22885366 </i>
   </energy>
  </scstep>
  <scstep>
   <time name="dav">   59.64   59.65</time>
   <time name="total">   61.07   61.09</time>
   <energy>
    <i name="e_fr_energy">   -763.30061106 </i>
    <i name="e_wo_entrp">   -763.30061106 </i>
    <i name="e_0_energy">   -763.30061106 </i>
   </energy>
  </scstep>
  <scstep>
   <time name="dav">   49.43   49.43</time>
   <time name="total">   50.82   50.84</time>
   <energy>
    <i name="e_fr_energy">   -763.30277836 </i>
    <i name="e_wo_entrp">   -763.30277836 </i>
    <i name="e_0_energy">   -763.30277836 </i>
   </energy>
  </scstep>
  <scstep>
   <time name="dav">   49.40   49.40</time>
   <time name="total">   50.79   50.80</time>
   <energy>
    <i name="e_fr_energy">   -763.30205257 </i>
    <i name="e_wo_entrp">   -763.30205257 </i>
    <i name="e_0_energy">   -763.30205257 </i>
   </energy>
  </scstep>
  <scstep>
   <time name="dav">   48.04   48.04</time>
   <time name="total">   49.43   49.45</time>
   <energy>
    <i name="e_fr_energy">   -763.30216987 </i>
    <i name="e_wo_entrp">   -763.30216987 </i>
    <i name="e_0_energy">   -763.30216987 </i>
   </energy>
  </scstep>
  <scstep>
   <time name="dav">   57.71   57.71</time>
   <time name="total">   59.08   59.09</time>
   <energy>
    <i name="e_fr_energy">   -763.30224681 </i>
    <i name="e_wo_entrp">   -763.30224681 </i>
    <i name="e_0_energy">   -763.30224681 </i>
   </energy>
  </scstep>
  <scstep>
   <time name="dav">   45.58   45.58</time>
   <time name="total">   46.95   46.97</time>
   <energy>
    <i name="e_fr_energy">   -763.30224722 </i>
    <i name="e_wo_entrp">   -763.30224722 </i>
    <i name="e_0_energy">   -763.30224722 </i>
   </energy>
  </scstep>
  <scstep>
   <time name="dav">   47.33   47.33</time>
   <time name="total">   48.72   48.73</time>
   <energy>
    <i name="e_fr_energy">   -763.30224748 </i>
    <i name="e_wo_entrp">   -763.30224748 </i>
    <i name="e_0_energy">   -763.30224748 </i>
   </energy>
  </scstep>
  <scstep>
   <time name="dav">   47.52   47.52</time>
   <time name="total">   48.89   48.90</time>
   <energy>
    <i name="e_fr_energy">   -763.30224754 </i>
    <i name="e_wo_entrp">   -763.30224754 </i>
    <i name="e_0_energy">   -763.30224754 </i>
   </energy>
  </scstep>
  <scstep>
   <time name="dav">   29.16   29.16</time>
   <time name="total">   29.52   29.53</time>
   <energy>
    <i name="alphaZ">   4862.75714100 </i>
    <i name="ewald"> -60058.75135803 </i>
    <i name="hartreedc"> -11955.92287839 </i>
    <i name="XCdc">   3445.92652607 </i>
    <i name="pawpsdc"> 138425.90171391 </i>
    <i name="pawaedc">-138062.76997437 </i>
    <i name="eentropy">     -0.00000000 </i>
    <i name="bandstr">  -2388.98365121 </i>
    <i name="atom">  64968.54023382 </i>
    <i name="e_fr_energy">   -763.30224719 </i>
    <i name="e_wo_entrp">   -763.30224719 </i>
    <i name="e_0_energy">   -763.30224719 </i>
   </energy>
  </scstep>
  <structure>
   <crystal>
    <varray name="basis" >
     <v>       9.94194835       0.00000000       0.00000000 </v>
     <v>       0.00000000       9.94194835       0.00000000 </v>
     <v>       0.00000000       0.00000000       9.94194835 </v>
    </varray>
    <i name="volume">    982.68540919 </i>
    <varray name="rec_basis" >
     <v>       0.10058391       0.00000000       0.00000000 </v>
     <v>       0.00000000       0.10058391       0.00000000 </v>
     <v>       0.00000000       0.00000000       0.10058391 </v>
    </varray>
   </crystal>
   <varray name="positions" >
    <v>       0.25277809       0.56547018       0.87290308 </v>
    <v>       0.30224304       0.32449113       0.63913636 </v>
    <v>       0.68359708       0.51307096       0.42678542 </v>
    <v>       0.96839649       0.39815420       0.53377582 </v>
    <v>       0.55838426       0.29157321       0.64172626 </v>
    <v>       0.42294834       0.10558083       0.86710349 </v>
    <v>       0.54427310       0.81158223       0.15461647 </v>
    <v>       0.16629892       0.37777587       0.05899486 </v>
    <v>       0.95805551       0.18875028       0.29153957 </v>
    <v>       0.26638525       0.08345699       0.35502370 </v>
    <v>       0.97682757       0.89913799       0.06763513 </v>
    <v>       0.87862977       0.97240500       0.51245619 </v>
    <v>       0.41526171       0.31387836       0.08712679 </v>
    <v>       0.98741351       0.65951649       0.79317009 </v>
    <v>       0.11625737       0.83855800       0.61383175 </v>
    <v>       0.69383799       0.22878417       0.19112635 </v>
    <v>       0.51381228       0.05651899       0.41768878 </v>
    <v>       0.10563439       0.60597304       0.35827683 </v>
    <v>       0.84161574       0.43351548       0.95675343 </v>
    <v>       0.54461677       0.54037951       0.88649759 </v>
    <v>       0.10757302       0.10709301       0.84719909 </v>
    <v>       0.43890696       0.84965477       0.63638274 </v>
    <v>       0.23920528       0.79738563       0.15158756 </v>
    <v>       0.85603935       0.18612526       0.72563394 </v>
    <v>       0.71180160       0.73943935       0.71202933 </v>
    <v>       0.86385332       0.73775265       0.28047948 </v>
    <v>       0.70706708       0.97111696       0.93666333 </v>
    <v>       0.28549132       0.58506064       0.55797516 </v>
    <v>       0.29143919       0.03074935       0.64899782 </v>
    <v>       0.50466992       0.55498433       0.61211260 </v>
    <v>       0.46501124       0.33905856       0.36166469 </v>
    <v>       0.91160563       0.64899718       0.52157503 </v>
    <v>       0.72194691       0.22202222       0.43969065 </v>
    <v>       0.89619158       0.16621251       0.99547104 </v>
    <v>       0.08981166       0.15719658       0.55989827 </v>
    <v>       0.77532842       0.46439795       0.70752430 </v>
    <v>       0.62599282       0.79046997       0.42387865 </v>
    <v>       0.94223660       0.92952825       0.76936454 </v>
    <v>       0.75526581       0.98048980       0.22093616 </v>
    <v>       0.61931998       0.53437821       0.13655523 </v>
    <v>       0.04813755       0.59337214       0.06335402 </v>
    <v>       0.62567146       0.23325789       0.88806288 </v>
    <v>       0.48398829       0.81452399       0.86821854 </v>
    <v>       0.22953931       0.82229695       0.87867310 </v>
    <v>       0.07297732       0.38919517       0.78931559 </v>
    <v>       0.90071706       0.43173842       0.26952108 </v>
    <v>       0.42860668       0.07367805       0.13703497 </v>
    <v>       0.35456781       0.54787569       0.18520208 </v>
    <v>       0.78120424       0.69766697       0.95786477 </v>
    <v>       0.22953048       0.35591580       0.36162311 </v>
    <v>       0.62526682       0.01352776       0.66961972 </v>
    <v>       0.05901770       0.88411645       0.32138889 </v>
    <v>       0.18017595       0.07181697       0.08655212 </v>
    <v>       0.33858773       0.77339630       0.39885118 </v>
    <v>       0.87204666       0.79101391       0.86684199 </v>
    <v>       0.21321557       0.70492527       0.49945374 </v>
    <v>       0.92319888       0.95568906       0.24484238 </v>
    <v>       0.54682276       0.43953251       0.25369527 </v>
    <v>       0.63570050       0.39788196       0.03129450 </v>
    <v>       0.59120317       0.04502010       0.21221858 </v>
    <v>       0.63715842       0.89048023       0.56880237 </v>
    <v>       0.87742615       0.54777960       0.39994291 </v>
    <v>       0.00137396       0.80823938       0.44582647 </v>
    <v>       0.50168230       0.44319811       0.50328768 </v>
    <v>       0.49155368       0.61889762       0.09309704 </v>
    <v>       0.77427912       0.37908409       0.56730685 </v>
    <v>       0.78488243       0.59115432       0.84919402 </v>
    <v>       0.93220276       0.45408284       0.75121121 </v>
    <v>       0.60767704       0.48039422       0.72172017 </v>
    <v>       0.90506577       0.18777455       0.53503735 </v>
    <v>       0.09265257       0.39621759       0.27640742 </v>
    <v>       0.22259362       0.88157321       0.35448914 </v>
    <v>       0.40774155       0.65913188       0.52954587 </v>
    <v>       0.73621445       0.65854321       0.11770489 </v>
    <v>       0.92601749       0.33562550       0.10762353 </v>
    <v>       0.09794533       0.88804830       0.84686757 </v>
    <v>       0.04066660       0.76321227       0.20639721 </v>
    <v>       0.36620559       0.73148233       0.95597772 </v>
    <v>       0.82716250       0.34297607       0.35306567 </v>
    <v>       0.63453413       0.77136743       0.94955898 </v>
    <v>       0.27108385       0.48864435       0.45797325 </v>
    <v>       0.23634235       0.14358684       0.56952101 </v>
    <v>       0.72279552       0.35235869       0.79495315 </v>
    <v>       0.31893078       0.14620182       0.06012045 </v>
    <v>       0.37171447       0.46633801       0.00712458 </v>
    <v>       0.75330325       0.47697045       0.21693525 </v>
    <v>       0.88176009       0.03585310       0.87945356 </v>
    <v>       0.38237211       0.50628818       0.68869785 </v>
    <v>       0.80979436       0.58210970       0.61370111 </v>
    <v>       0.41289809       0.20771333       0.23320706 </v>
    <v>       0.23255904       0.92749144       0.00096658 </v>
    <v>       0.21211006       0.32120202       0.84801920 </v>
    <v>       0.04561095       0.05072955       0.45286387 </v>
    <v>       0.46673430       0.07831783       0.62207643 </v>
    <v>       0.10343193       0.25511232       0.68951512 </v>
    <v>       0.44064518       0.94402658       0.99308646 </v>
    <v>       0.78974318       0.98432454       0.69687101 </v>
    <v>       0.17971310       0.19836276       0.24025197 </v>
    <v>       0.11959983       0.30441938       0.46857022 </v>
    <v>       0.91901286       0.68424842       0.02807865 </v>
    <v>       0.59780164       0.67476433       0.52974474 </v>
    <v>       0.02356568       0.62467062       0.60578073 </v>
    <v>       0.31917165       0.93346614       0.80591428 </v>
    <v>       0.99264197       0.25277732       0.87404727 </v>
    <v>       0.91312519       0.80352236       0.65109311 </v>
    <v>       0.11828034       0.98117428       0.17720891 </v>
    <v>       0.32641042       0.42762153       0.27334148 </v>
    <v>       0.04696202       0.14444685       0.02516822 </v>
    <v>       0.58483601       0.25662878       0.38474272 </v>
    <v>       0.28116401       0.94807256       0.54282533 </v>
    <v>       0.06953510       0.49857527       0.91492348 </v>
    <v>       0.56648043       0.91752394       0.79859679 </v>
    <v>       0.13725188       0.72267834       0.97722408 </v>
    <v>       0.96272229       0.56351485       0.18417725 </v>
    <v>       0.76043840       0.22699295       0.94066828 </v>
    <v>       0.55675556       0.16013860       0.05314411 </v>
    <v>       0.13589784       0.46104494       0.69056356 </v>
    <v>       0.67960527       0.09842994       0.54747725 </v>
    <v>       0.48928868       0.70783977       0.74702198 </v>
    <v>       0.61233873       0.66651442       0.30702981 </v>
    <v>       0.75440138       0.08787616       0.34443426 </v>
    <v>       0.49515134       0.31483852       0.83724085 </v>
    <v>       0.34799790       0.27670023       0.44359317 </v>
    <v>       0.00777191       0.05295028       0.66382571 </v>
    <v>       0.73710277       0.87639333       0.35347807 </v>
    <v>       0.35373457       0.63741847       0.31103114 </v>
    <v>       0.38756031       0.96381764       0.23649477 </v>
    <v>       0.79901441       0.07281836       0.07951877 </v>
    <v>       0.21585838       0.57402264       0.12973846 </v>
    <v>       0.28348926       0.15725991       0.74773630 </v>
    <v>       0.79098829       0.85202391       0.12712000 </v>
    <v>       0.61362179       0.12843651       0.78789252 </v>
    <v>       0.80448680       0.73129663       0.48308277 </v>
    <v>       0.49065530       0.84008440       0.37368974 </v>
    <v>       0.26172212       0.75304023       0.72045149 </v>
   </varray>
  </structure>
  <varray name="forces" >
   <v>       3.93357858      -0.46142805      -3.66997354 </v>
   <v>      -2.02538390       0.79190620       3.20889207 </v>
   <v>      -0.71204843       0.75993615      -2.31799419 </v>
   <v>       1.16476248       2.06352911       2.36176018 </v>
   <v>       0.75771032      -1.46066673      -0.06402597 </v>
   <v>      -0.79699846       0.07771170       1.51331775 </v>
   <v>       1.27022469       0.55132423      -0.01513136 </v>
   <v>      -0.43745815      -6.37675710       0.25141447 </v>
   <v>       4.09321086      -3.27749154      -0.06255675 </v>
   <v>       0.11254470      -1.39577049       4.12463243 </v>
   <v>      -0.48499127      -1.71376364      -9.02359112 </v>
   <v>      -5.92934794      -2.51850089      -2.46231513 </v>
   <v>       5.34776983       1.76349846      -5.28567615 </v>
   <v>       3.95893098      -1.85052807       0.69634757 </v>
   <v>      -1.11289964       0.68929073      -0.32559266 </v>
   <v>      -0.72198419       5.31954165      -3.90461316 </v>
   <v>      -0.64139580      -2.26247349      -2.12914204 </v>
   <v>      -0.50851839      -0.70207078      -2.19526387 </v>
   <v>       0.05467915      -1.44603747       2.08914726 </v>
   <v>      -3.26124019       0.02293997       4.48405316 </v>
   <v>       6.86322066      -1.37984040      -4.43826005 </v>
   <v>      -0.44257128      -0.79251841      -4.90049584 </v>
   <v>       3.59958101      -0.32425537      -1.03704690 </v>
   <v>      -2.39607258       3.08450248       0.36039562 </v>
   <v>      -0.42964053       2.35940460      -2.54012086 </v>
   <v>      -5.53366686      -4.54200800      -0.68382319 </v>
   <v>      -3.16544534      -1.64035701       1.22854325 </v>
   <v>      -6.57790555       0.60906434      16.49257306 </v>
   <v>       6.28153197      10.69041151      17.98089024 </v>
   <v>       6.58509636       6.98578176       0.51580471 </v>
   <v>      -2.86283182       7.32885572      -4.99200842 </v>
   <v>       0.41662953       1.90136176      -1.10271883 </v>
   <v>      11.67677630      -1.43912277       6.43443401 </v>
   <v>       0.43224810       4.12489811      -2.11842259 </v>
   <v>      -8.22414171       5.00425742      -0.12405406 </v>
   <v>      -0.38561542       1.39464574      -0.24644582 </v>
   <v>       6.97400530      -5.88353833       2.42575594 </v>
   <v>      -3.46857945      -3.55773423      -0.62270158 </v>
   <v>      -0.35897046      -2.14367745       0.61192917 </v>
   <v>       6.12162980      -0.40098273       4.17465925 </v>
   <v>       2.69914375       6.98259426      -4.46619512 </v>
   <v>      -6.06356404      11.61147053       5.90699533 </v>
   <v>      -3.72339443      -2.75861550       9.38330925 </v>
   <v>       4.41863733      -4.31208477       0.82482755 </v>
   <v>      -3.88075397     -13.50637182       9.55415580 </v>
   <v>       5.15341726       9.95274477     -11.14412331 </v>
   <v>      10.63941431      -4.17471119      -1.07283321 </v>
   <v>       8.39855205       2.23814812      -7.74089212 </v>
   <v>      -2.63123340       3.47781191       8.81515883 </v>
   <v>      -9.16771417      -4.64565617       3.01708555 </v>
   <v>       1.15122983      -0.35252939       1.75826935 </v>
   <v>       0.77754377       5.16576767      -1.56338883 </v>
   <v>       3.58901035       4.75828207      -3.06633970 </v>
   <v>       0.59741870      -0.58036623       2.46905305 </v>
   <v>      -3.41943431      10.71773782      -1.42197623 </v>
   <v>      -2.59432699       4.53696900      -3.78739296 </v>
   <v>       0.67357885       3.94676151       7.08356853 </v>
   <v>      -3.88933636      -1.85732990       0.87253150 </v>
   <v>      -1.27017539       1.93450985      -0.03080108 </v>
   <v>       1.65104938      -4.65850995       0.79032424 </v>
   <v>      -2.15159860      -1.73308920      -2.59565157 </v>
   <v>       7.60829083      -1.18762424      -2.44453789 </v>
   <v>       1.30335769      -2.02734516      -2.64946040 </v>
   <v>      -0.53530668      -3.90316249      -3.91758659 </v>
   <v>      -1.94502318       0.22479192       2.64351936 </v>
   <v>      -5.74598984      -5.83598568      -1.07773162 </v>
   <v>      -3.83477985      -3.12864135      -3.20280561 </v>
   <v>      -3.09274054      -2.15234287      -0.68835817 </v>
   <v>      -1.34875190       6.03198199      -9.01614419 </v>
   <v>      -1.61742984       2.77348423      -4.47108115 </v>
   <v>      -3.30259337       3.13478436      -0.12734263 </v>
   <v>      -0.98615577      -4.11922161      -1.56273329 </v>
   <v>       3.25176212       5.60366924      -2.34193469 </v>
   <v>      -4.93000677      -3.33438495      -4.72215584 </v>
   <v>       0.37545215      -3.83776438       3.51916824 </v>
   <v>     -11.61435588       4.00901615      -6.52963935 </v>
   <v>       6.13143321      -0.41180430       1.61357866 </v>
   <v>      -0.05588578       0.89724770      -1.65983992 </v>
   <v>      -5.48468263     -13.11690467       8.11085736 </v>
   <v>      -2.79770091      -1.31777165      -2.06096144 </v>
   <v>      -4.76032409      -8.76288791      -5.54201846 </v>
   <v>       2.22706124       1.48530706     -10.36107610 </v>
   <v>       1.08110992      -6.04284372       1.93368804 </v>
   <v>      -7.39953999      -0.03095878      -6.96167194 </v>
   <v>      -2.88971216       4.66849277      -0.73769146 </v>
   <v>       0.38152411      -1.87184990      -0.61299043 </v>
   <v>       6.04433528       1.14020609       2.11080695 </v>
   <v>      -5.54116531       0.22853267       3.21145647 </v>
   <v>      -3.95161535      -1.86723746       4.35248276 </v>
   <v>       2.75230724      -2.21579539      10.46843904 </v>
   <v>      -2.52681314       6.25839172       3.22299666 </v>
   <v>       2.65551922       2.77442556       7.06783530 </v>
   <v>       5.43236872      -3.33751855      -8.29354533 </v>
   <v>      -1.10389811      -1.34436320       0.96143303 </v>
   <v>      -6.11106239      -0.75079608      -2.62145876 </v>
   <v>       5.41444662      -0.48488268       3.20602968 </v>
   <v>      -1.76845987      -0.87959610       3.43676541 </v>
   <v>      -2.48312901       3.17227381      -3.87581974 </v>
   <v>       1.54808707      -3.98444249      -0.79975609 </v>
   <v>       5.59300811      -2.39562770      -1.09071275 </v>
   <v>       1.90277377      -3.23132094       5.35360426 </v>
   <v>      11.28920264      -3.35564752      -0.86699296 </v>
   <v>       3.29198721       3.60818220      -5.47369632 </v>
   <v>      -7.13617969       6.69596081       0.72772509 </v>
   <v>       1.63260384       3.85531250       3.26682447 </v>
   <v>      -0.83646117      -4.67377000      11.07210969 </v>
   <v>       3.48218974      -4.19347554      -4.61715030 </v>
   <v>       5.00206179      -3.51136667       8.98043336 </v>
   <v>       4.14391002      -2.86237752       1.88141505 </v>
   <v>       0.52039593     -14.51872158     -13.31937351 </v>
   <v>      -3.53586605       1.81090180       7.17869009 </v>
   <v>       2.41314929       4.88689251      -6.35139951 </v>
   <v>      -1.71453344      -3.07857974      -0.07841049 </v>
   <v>       0.00109260      -5.67739718       4.71601446 </v>
   <v>       7.47385778      -2.15333805       5.43784304 </v>
   <v>       0.18522909       1.24128143      -7.38410610 </v>
   <v>      11.51486275      13.11041954     -13.18849402 </v>
   <v>       0.79431710       7.64924327      -1.88123469 </v>
   <v>       2.62666300      -4.55836837       2.89884702 </v>
   <v>       0.32885026       0.77723450      -1.07510049 </v>
   <v>       2.82278763       5.73305080       1.17502432 </v>
   <v>      -2.83936698       0.06135478       1.40964872 </v>
   <v>       1.46526190      -3.27609868      -0.28058437 </v>
   <v>       2.58544337      -5.98613103       4.68830037 </v>
   <v>      -2.81008987       4.27622907      -2.44458139 </v>
   <v>      -0.42906446       5.63924288      -0.30504801 </v>
   <v>      -2.92879220      -2.07884107      -0.80335411 </v>
   <v>       1.91488316       0.95310516       7.53081275 </v>
   <v>      -7.46618329       1.89851532      -0.77682547 </v>
   <v>       1.46492918      -3.15446381       5.92820782 </v>
   <v>      -5.76834991       2.20721737      -4.04159288 </v>
   <v>       3.20841076      -4.84656435      -5.17893137 </v>
   <v>     -11.36968341       9.22747502      -5.11138528 </v>
   <v>      -7.33590872       2.45135546       1.77019300 </v>
   <v>      -1.99121200      -5.68423641       2.39430372 </v>
  </varray>
  <varray name="stress" >
   <v>    1365.96818364     -54.56619414      48.98298066 </v>
   <v>     -54.56619421    1355.98571653    -157.13319423 </v>
   <v>      48.98298071    -157.13319419    1343.90711935 </v>
  </varray>
  <energy>
   <i name="e_fr_energy">   -763.30224719 </i>
   <i name="e_wo_entrp">   -763.30224719 </i>
   <i name="e_0_energy">     -0.00000000 </i>
  </energy>
  <time name="totalsc">  915.75  916.04</time>
  <eigenvalues>
   <array>
    <dimension dim="1">band</dimension>
    <dimension dim="2">kpoint</dimension>
    <dimension dim="3">spin</dimension>
    <field>eigene</field>
    <field>occ</field>
    <set>
     <set comment="spin 1">
      <set comment="kpoint 1">
       <r>  -29.7688    1.0000 </r>
       <r>  -29.6610    1.0000 </r>
       <r>  -29.5834    1.0000 </r>
       <r>  -29.3905    1.0000 </r>
       <r>  -29.2935    1.0000 </r>
       <r>  -29.0788    1.0000 </r>
       <r>  -28.7357    1.0000 </r>
       <r>  -28.6410    1.0000 </r>
       <r>  -28.6235    1.0000 </r>
       <r>  -28.3277    1.0000 </r>
       <r>  -28.2356    1.0000 </r>
       <r>  -28.1783    1.0000 </r>
       <r>  -28.1696    1.0000 </r>
       <r>  -28.0396    1.0000 </r>
       <r>  -28.0253    1.0000 </r>
       <r>  -28.0102    1.0000 </r>
       <r>  -27.9416    1.0000 </r>
       <r>  -27.9398    1.0000 </r>
       <r>  -27.8981    1.0000 </r>
       <r>  -27.8232    1.0000 </r>
       <r>  -27.6286    1.0000 </r>
       <r>  -27.5974    1.0000 </r>
       <r>  -27.4938    1.0000 </r>
       <r>  -27.3777    1.0000 </r>
       <r>  -27.3114    1.0000 </r>
       <r>  -27.2151    1.0000 </r>
       <r>  -26.9409    1.0000 </r>
[...]
       <r>    12.8711     0.0000   864.0000 </r>
       <r>    13.0471     4.8870   864.8598 </r>
       <r>    13.2230    17.6659   867.9678 </r>
       <r>    13.3989     0.1830   868.0000 </r>
       <r>    13.5749     0.0000   868.0000 </r>
       <r>    13.7508     1.6726   868.2943 </r>
       <r>    13.9267    21.9743   872.1603 </r>
       <r>    14.1027    21.2478   875.8985 </r>
       <r>    14.2786     7.9254   877.2928 </r>
       <r>    14.4545    28.3720   882.2844 </r>
       <r>    14.6305    22.4905   886.2413 </r>
       <r>    14.8064    20.4131   889.8326 </r>
       <r>    14.9823    33.8793   895.7931 </r>
       <r>    15.1583    28.0729   900.7321 </r>
       <r>    15.3342    28.8513   905.8080 </r>
       <r>    15.5101    29.6652   911.0271 </r>
       <r>    15.6861    32.2257   916.6967 </r>
       <r>    15.8620    42.3296   924.1439 </r>
       <r>    16.0379    37.9830   930.8264 </r>
       <r>    16.2139    43.6600   938.5077 </r>
       <r>    16.3898    47.7131   946.9020 </r>
       <r>    16.5657    49.4807   955.6073 </r>
       <r>    16.7417    53.0164   964.9347 </r>
       <r>    16.9176    52.6620   974.1997 </r>
       <r>    17.0935    51.6777   983.2916 </r>
       <r>    17.2695    50.6672   992.2056 </r>
       <r>    17.4454    53.0502  1001.5389 </r>
       <r>    17.6213    57.4903  1011.6534 </r>
       <r>    17.7973    58.9350  1022.0221 </r>
       <r>    17.9732    55.1738  1031.7290 </r>
       <r>    18.1492    40.4935  1038.8532 </r>
       <r>    18.3251     6.5181  1039.9999 </r>
       <r>    18.5010     0.0004  1040.0000 </r>
       <r>    18.6770     0.0000  1040.0000 </r>
       <r>    18.8529     0.0000  1040.0000 </r>
       <r>    19.0288     0.0000  1040.0000 </r>
       <r>    19.2048     0.0000  1040.0000 </r>
       <r>    19.3807     0.0000  1040.0000 </r>
       <r>    19.5566     0.0000  1040.0000 </r>
       <r>    19.7326     0.0000  1040.0000 </r>
       <r>    19.9085     0.0000  1040.0000 </r>
       <r>    20.0844     0.0000  1040.0000 </r>
       <r>    20.2604     0.0000  1040.0000 </r>
       <r>    20.4363     0.0000  1040.0000 </r>
       <r>    20.6122     0.0000  1040.0000 </r>
      </set>
     </set>
    </array>
   </total>
  </dos>
 </calculation>
 <structure name="finalpos" >
  <crystal>
   <varray name="basis" >
    <v>       9.94194835       0.00000000       0.00000000 </v>
    <v>       0.00000000       9.94194835       0.00000000 </v>
    <v>       0.00000000       0.00000000       9.94194835 </v>
   </varray>
   <i name="volume">    982.68540919 </i>
   <varray name="rec_basis" >
    <v>       0.10058391       0.00000000       0.00000000 </v>
    <v>       0.00000000       0.10058391       0.00000000 </v>
    <v>       0.00000000       0.00000000       0.10058391 </v>
   </varray>
  </crystal>
  <varray name="positions" >
   <v>       0.25277809       0.56547018       0.87290308 </v>
   <v>       0.30224304       0.32449113       0.63913636 </v>
   <v>       0.68359708       0.51307096       0.42678542 </v>
   <v>       0.96839649       0.39815420       0.53377582 </v>
   <v>       0.55838426       0.29157321       0.64172626 </v>
   <v>       0.42294834       0.10558083       0.86710349 </v>
   <v>       0.54427310       0.81158223       0.15461647 </v>
   <v>       0.16629892       0.37777587       0.05899486 </v>
   <v>       0.95805551       0.18875028       0.29153957 </v>
   <v>       0.26638525       0.08345699       0.35502370 </v>
   <v>       0.97682757       0.89913799       0.06763513 </v>
   <v>       0.87862977       0.97240500       0.51245619 </v>
   <v>       0.41526171       0.31387836       0.08712679 </v>
   <v>       0.98741351       0.65951649       0.79317009 </v>
   <v>       0.11625737       0.83855800       0.61383175 </v>
   <v>       0.69383799       0.22878417       0.19112635 </v>
   <v>       0.51381228       0.05651899       0.41768878 </v>
   <v>       0.10563439       0.60597304       0.35827683 </v>
   <v>       0.84161574       0.43351548       0.95675343 </v>
   <v>       0.54461677       0.54037951       0.88649759 </v>
   <v>       0.10757302       0.10709301       0.84719909 </v>
   <v>       0.43890696       0.84965477       0.63638274 </v>
   <v>       0.23920528       0.79738563       0.15158756 </v>
   <v>       0.85603935       0.18612526       0.72563394 </v>
   <v>       0.71180160       0.73943935       0.71202933 </v>
   <v>       0.86385332       0.73775265       0.28047948 </v>
   <v>       0.70706708       0.97111696       0.93666333 </v>
   <v>       0.28549132       0.58506064       0.55797516 </v>
   <v>       0.29143919       0.03074935       0.64899782 </v>
   <v>       0.50466992       0.55498433       0.61211260 </v>
   <v>       0.46501124       0.33905856       0.36166469 </v>
   <v>       0.91160563       0.64899718       0.52157503 </v>
   <v>       0.72194691       0.22202222       0.43969065 </v>
   <v>       0.89619158       0.16621251       0.99547104 </v>
   <v>       0.08981166       0.15719658       0.55989827 </v>
   <v>       0.77532842       0.46439795       0.70752430 </v>
   <v>       0.62599282       0.79046997       0.42387865 </v>
   <v>       0.94223660       0.92952825       0.76936454 </v>
   <v>       0.75526581       0.98048980       0.22093616 </v>
   <v>       0.61931998       0.53437821       0.13655523 </v>
   <v>       0.04813755       0.59337214       0.06335402 </v>
   <v>       0.62567146       0.23325789       0.88806288 </v>
   <v>       0.48398829       0.81452399       0.86821854 </v>
   <v>       0.22953931       0.82229695       0.87867310 </v>
   <v>       0.07297732       0.38919517       0.78931559 </v>
   <v>       0.90071706       0.43173842       0.26952108 </v>
   <v>       0.42860668       0.07367805       0.13703497 </v>
   <v>       0.35456781       0.54787569       0.18520208 </v>
   <v>       0.78120424       0.69766697       0.95786477 </v>
   <v>       0.22953048       0.35591580       0.36162311 </v>
   <v>       0.62526682       0.01352776       0.66961972 </v>
   <v>       0.05901770       0.88411645       0.32138889 </v>
   <v>       0.18017595       0.07181697       0.08655212 </v>
   <v>       0.33858773       0.77339630       0.39885118 </v>
   <v>       0.87204666       0.79101391       0.86684199 </v>
   <v>       0.21321557       0.70492527       0.49945374 </v>
   <v>       0.92319888       0.95568906       0.24484238 </v>
   <v>       0.54682276       0.43953251       0.25369527 </v>
   <v>       0.63570050       0.39788196       0.03129450 </v>
   <v>       0.59120317       0.04502010       0.21221858 </v>
   <v>       0.63715842       0.89048023       0.56880237 </v>
   <v>       0.87742615       0.54777960       0.39994291 </v>
   <v>       0.00137396       0.80823938       0.44582647 </v>
   <v>       0.50168230       0.44319811       0.50328768 </v>
   <v>       0.49155368       0.61889762       0.09309704 </v>
   <v>       0.77427912       0.37908409       0.56730685 </v>
   <v>       0.78488243       0.59115432       0.84919402 </v>
   <v>       0.93220276       0.45408284       0.75121121 </v>
   <v>       0.60767704       0.48039422       0.72172017 </v>
   <v>       0.90506577       0.18777455       0.53503735 </v>
   <v>       0.09265257       0.39621759       0.27640742 </v>
   <v>       0.22259362       0.88157321       0.35448914 </v>
   <v>       0.40774155       0.65913188       0.52954587 </v>
   <v>       0.73621445       0.65854321       0.11770489 </v>
   <v>       0.92601749       0.33562550       0.10762353 </v>
   <v>       0.09794533       0.88804830       0.84686757 </v>
   <v>       0.04066660       0.76321227       0.20639721 </v>
   <v>       0.36620559       0.73148233       0.95597772 </v>
   <v>       0.82716250       0.34297607       0.35306567 </v>
   <v>       0.63453413       0.77136743       0.94955898 </v>
   <v>       0.27108385       0.48864435       0.45797325 </v>
   <v>       0.23634235       0.14358684       0.56952101 </v>
   <v>       0.72279552       0.35235869       0.79495315 </v>
   <v>       0.31893078       0.14620182       0.06012045 </v>
   <v>       0.37171447       0.46633801       0.00712458 </v>
   <v>       0.75330325       0.47697045       0.21693525 </v>
   <v>       0.88176009       0.03585310       0.87945356 </v>
   <v>       0.38237211       0.50628818       0.68869785 </v>
   <v>       0.80979436       0.58210970       0.61370111 </v>
   <v>       0.41289809       0.20771333       0.23320706 </v>
   <v>       0.23255904       0.92749144       0.00096658 </v>
   <v>       0.21211006       0.32120202       0.84801920 </v>
   <v>       0.04561095       0.05072955       0.45286387 </v>
   <v>       0.46673430       0.07831783       0.62207643 </v>
   <v>       0.10343193       0.25511232       0.68951512 </v>
   <v>       0.44064518       0.94402658       0.99308646 </v>
   <v>       0.78974318       0.98432454       0.69687101 </v>
   <v>       0.17971310       0.19836276       0.24025197 </v>
   <v>       0.11959983       0.30441938       0.46857022 </v>
   <v>       0.91901286       0.68424842       0.02807865 </v>
   <v>       0.59780164       0.67476433       0.52974474 </v>
   <v>       0.02356568       0.62467062       0.60578073 </v>
   <v>       0.31917165       0.93346614       0.80591428 </v>
   <v>       0.99264197       0.25277732       0.87404727 </v>
   <v>       0.91312519       0.80352236       0.65109311 </v>
   <v>       0.11828034       0.98117428       0.17720891 </v>
   <v>       0.32641042       0.42762153       0.27334148 </v>
   <v>       0.04696202       0.14444685       0.02516822 </v>
   <v>       0.58483601       0.25662878       0.38474272 </v>
   <v>       0.28116401       0.94807256       0.54282533 </v>
   <v>       0.06953510       0.49857527       0.91492348 </v>
   <v>       0.56648043       0.91752394       0.79859679 </v>
   <v>       0.13725188       0.72267834       0.97722408 </v>
   <v>       0.96272229       0.56351485       0.18417725 </v>
   <v>       0.76043840       0.22699295       0.94066828 </v>
   <v>       0.55675556       0.16013860       0.05314411 </v>
   <v>       0.13589784       0.46104494       0.69056356 </v>
   <v>       0.67960527       0.09842994       0.54747725 </v>
   <v>       0.48928868       0.70783977       0.74702198 </v>
   <v>       0.61233873       0.66651442       0.30702981 </v>
   <v>       0.75440138       0.08787616       0.34443426 </v>
   <v>       0.49515134       0.31483852       0.83724085 </v>
   <v>       0.34799790       0.27670023       0.44359317 </v>
   <v>       0.00777191       0.05295028       0.66382571 </v>
   <v>       0.73710277       0.87639333       0.35347807 </v>
   <v>       0.35373457       0.63741847       0.31103114 </v>
   <v>       0.38756031       0.96381764       0.23649477 </v>
   <v>       0.79901441       0.07281836       0.07951877 </v>
   <v>       0.21585838       0.57402264       0.12973846 </v>
   <v>       0.28348926       0.15725991       0.74773630 </v>
   <v>       0.79098829       0.85202391       0.12712000 </v>
   <v>       0.61362179       0.12843651       0.78789252 </v>
   <v>       0.80448680       0.73129663       0.48308277 </v>
   <v>       0.49065530       0.84008440       0.37368974 </v>
   <v>       0.26172212       0.75304023       0.72045149 </v>
  </varray>
  <varray name="velocities" >
   <v>       0.00000000       0.00000000       0.00000000 </v>
   <v>       0.00000000       0.00000000       0.00000000 </v>
   <v>       0.00000000       0.00000000       0.00000000 </v>
   <v>       0.00000000       0.00000000       0.00000000 </v>
   <v>       0.00000000       0.00000000       0.00000000 </v>
   <v>       0.00000000       0.00000000       0.00000000 </v>
   <v>       0.00000000       0.00000000       0.00000000 </v>
   <v>       0.00000000       0.00000000       0.00000000 </v>
   <v>       0.00000000       0.00000000       0.00000000 </v>
   <v>       0.00000000       0.00000000       0.00000000 </v>
   <v>       0.00000000       0.00000000       0.00000000 </v>
   <v>       0.00000000       0.00000000       0.00000000 </v>
   <v>       0.00000000       0.00000000       0.00000000 </v>
   <v>       0.00000000       0.00000000       0.00000000 </v>
   <v>       0.00000000       0.00000000       0.00000000 </v>
   <v>       0.00000000       0.00000000       0.00000000 </v>
   <v>       0.00000000       0.00000000       0.00000000 </v>
   <v>       0.00000000       0.00000000       0.00000000 </v>
   <v>       0.00000000       0.00000000       0.00000000 </v>
   <v>       0.00000000       0.00000000       0.00000000 </v>
   <v>       0.00000000       0.00000000       0.00000000 </v>
   <v>       0.00000000       0.00000000       0.00000000 </v>
   <v>       0.00000000       0.00000000       0.00000000 </v>
   <v>       0.00000000       0.00000000       0.00000000 </v>
   <v>       0.00000000       0.00000000       0.00000000 </v>
   <v>       0.00000000       0.00000000       0.00000000 </v>
   <v>       0.00000000       0.00000000       0.00000000 </v>
   <v>       0.00000000       0.00000000       0.00000000 </v>
   <v>       0.00000000       0.00000000       0.00000000 </v>
   <v>       0.00000000       0.00000000       0.00000000 </v>
   <v>       0.00000000       0.00000000       0.00000000 </v>
   <v>       0.00000000       0.00000000       0.00000000 </v>
   <v>       0.00000000       0.00000000       0.00000000 </v>
   <v>       0.00000000       0.00000000       0.00000000 </v>
   <v>       0.00000000       0.00000000       0.00000000 </v>
   <v>       0.00000000       0.00000000       0.00000000 </v>
   <v>       0.00000000       0.00000000       0.00000000 </v>
   <v>       0.00000000       0.00000000       0.00000000 </v>
   <v>       0.00000000       0.00000000       0.00000000 </v>
   <v>       0.00000000       0.00000000       0.00000000 </v>
   <v>       0.00000000       0.00000000       0.00000000 </v>
   <v>       0.00000000       0.00000000       0.00000000 </v>
   <v>       0.00000000       0.00000000       0.00000000 </v>
   <v>       0.00000000       0.00000000       0.00000000 </v>
   <v>       0.00000000       0.00000000       0.00000000 </v>
   <v>       0.00000000       0.00000000       0.00000000 </v>
   <v>       0.00000000       0.00000000       0.00000000 </v>
   <v>       0.00000000       0.00000000       0.00000000 </v>
   <v>       0.00000000       0.00000000       0.00000000 </v>
   <v>       0.00000000       0.00000000       0.00000000 </v>
   <v>       0.00000000       0.00000000       0.00000000 </v>
   <v>       0.00000000       0.00000000       0.00000000 </v>
   <v>       0.00000000       0.00000000       0.00000000 </v>
   <v>       0.00000000       0.00000000       0.00000000 </v>
   <v>       0.00000000       0.00000000       0.00000000 </v>
   <v>       0.00000000       0.00000000       0.00000000 </v>
   <v>       0.00000000       0.00000000       0.00000000 </v>
   <v>       0.00000000       0.00000000       0.00000000 </v>
   <v>       0.00000000       0.00000000       0.00000000 </v>
   <v>       0.00000000       0.00000000       0.00000000 </v>
   <v>       0.00000000       0.00000000       0.00000000 </v>
   <v>       0.00000000       0.00000000       0.00000000 </v>
   <v>       0.00000000       0.00000000       0.00000000 </v>
   <v>       0.00000000       0.00000000       0.00000000 </v>
   <v>       0.00000000       0.00000000       0.00000000 </v>
   <v>       0.00000000       0.00000000       0.00000000 </v>
   <v>       0.00000000       0.00000000       0.00000000 </v>
   <v>       0.00000000       0.00000000       0.00000000 </v>
   <v>       0.00000000       0.00000000       0.00000000 </v>
   <v>       0.00000000       0.00000000       0.00000000 </v>
   <v>       0.00000000       0.00000000       0.00000000 </v>
   <v>       0.00000000       0.00000000       0.00000000 </v>
   <v>       0.00000000       0.00000000       0.00000000 </v>
   <v>       0.00000000       0.00000000       0.00000000 </v>
   <v>       0.00000000       0.00000000       0.00000000 </v>
   <v>       0.00000000       0.00000000       0.00000000 </v>
   <v>       0.00000000       0.00000000       0.00000000 </v>
   <v>       0.00000000       0.00000000       0.00000000 </v>
   <v>       0.00000000       0.00000000       0.00000000 </v>
   <v>       0.00000000       0.00000000       0.00000000 </v>
   <v>       0.00000000       0.00000000       0.00000000 </v>
   <v>       0.00000000       0.00000000       0.00000000 </v>
   <v>       0.00000000       0.00000000       0.00000000 </v>
   <v>       0.00000000       0.00000000       0.00000000 </v>
   <v>       0.00000000       0.00000000       0.00000000 </v>
   <v>       0.00000000       0.00000000       0.00000000 </v>
   <v>       0.00000000       0.00000000       0.00000000 </v>
   <v>       0.00000000       0.00000000       0.00000000 </v>
   <v>       0.00000000       0.00000000       0.00000000 </v>
   <v>       0.00000000       0.00000000       0.00000000 </v>
   <v>       0.00000000       0.00000000       0.00000000 </v>
   <v>       0.00000000       0.00000000       0.00000000 </v>
   <v>       0.00000000       0.00000000       0.00000000 </v>
   <v>       0.00000000       0.00000000       0.00000000 </v>
   <v>       0.00000000       0.00000000       0.00000000 </v>
   <v>       0.00000000       0.00000000       0.00000000 </v>
   <v>       0.00000000       0.00000000       0.00000000 </v>
   <v>       0.00000000       0.00000000       0.00000000 </v>
   <v>       0.00000000       0.00000000       0.00000000 </v>
   <v>       0.00000000       0.00000000       0.00000000 </v>
   <v>       0.00000000       0.00000000       0.00000000 </v>
   <v>       0.00000000       0.00000000       0.00000000 </v>
   <v>       0.00000000       0.00000000       0.00000000 </v>
   <v>       0.00000000       0.00000000       0.00000000 </v>
   <v>       0.00000000       0.00000000       0.00000000 </v>
   <v>       0.00000000       0.00000000       0.00000000 </v>
   <v>       0.00000000       0.00000000       0.00000000 </v>
   <v>       0.00000000       0.00000000       0.00000000 </v>
   <v>       0.00000000       0.00000000       0.00000000 </v>
   <v>       0.00000000       0.00000000       0.00000000 </v>
   <v>       0.00000000       0.00000000       0.00000000 </v>
   <v>       0.00000000       0.00000000       0.00000000 </v>
   <v>       0.00000000       0.00000000       0.00000000 </v>
   <v>       0.00000000       0.00000000       0.00000000 </v>
   <v>       0.00000000       0.00000000       0.00000000 </v>
   <v>       0.00000000       0.00000000       0.00000000 </v>
   <v>       0.00000000       0.00000000       0.00000000 </v>
   <v>       0.00000000       0.00000000       0.00000000 </v>
   <v>       0.00000000       0.00000000       0.00000000 </v>
   <v>       0.00000000       0.00000000       0.00000000 </v>
   <v>       0.00000000       0.00000000       0.00000000 </v>
   <v>       0.00000000       0.00000000       0.00000000 </v>
   <v>       0.00000000       0.00000000       0.00000000 </v>
   <v>       0.00000000       0.00000000       0.00000000 </v>
   <v>       0.00000000       0.00000000       0.00000000 </v>
   <v>       0.00000000       0.00000000       0.00000000 </v>
   <v>       0.00000000       0.00000000       0.00000000 </v>
   <v>       0.00000000       0.00000000       0.00000000 </v>
   <v>       0.00000000       0.00000000       0.00000000 </v>
   <v>       0.00000000       0.00000000       0.00000000 </v>
   <v>       0.00000000       0.00000000       0.00000000 </v>
   <v>       0.00000000       0.00000000       0.00000000 </v>
   <v>       0.00000000       0.00000000       0.00000000 </v>
   <v>       0.00000000       0.00000000       0.00000000 </v>
   <v>       0.00000000       0.00000000       0.00000000 </v>
  </varray>
 </structure>
</modeling>
