<?xml version="1.0" encoding="ISO-8859-1"?>
<modeling>
 <generator>
  <i name="program" type="string">vasp </i>
  <i name="version" type="string">5.4.4.18Apr17-6-g9f103f2a35  </i>
  <i name="subversion" type="string">(build Oct 31 2019 15:01:46) complex            parallel </i>
  <i name="platform" type="string">LinuxIFC </i>
  <i name="date" type="string">2024 04 29 </i>
  <i name="time" type="string">20:48:31 </i>
 </generator>
 <incar>
  <i type="int" name="ISTART">     0</i>
  <i type="string" name="PREC">a</i>
  <i type="logical" name="ADDGRID"> T  </i>
  <i type="int" name="IBRION">    -1</i>
  <i name="EDIFF">      0.00000100</i>
  <i name="EDIFFG">     -0.01000000</i>
  <i type="int" name="NSW">     1</i>
  <i type="int" name="ISIF">     2</i>
  <i type="int" name="ISYM">     0</i>
  <i name="ENCUT">    600.00000000</i>
  <i name="POTIM">      1.00000000</i>
  <i type="string" name="LREAL">  Auto</i>
  <i type="int" name="ISMEAR">     0</i>
  <i name="SIGMA">      0.05000000</i>
  <i name="KSPACING">      0.30000000</i>
  <i type="logical" name="KGAMMA"> T  </i>
  <i type="logical" name="LWAVE"> F  </i>
  <i type="logical" name="LCHARG"> F  </i>
  <i type="logical" name="LSCALAPACK"> F  </i>
  <v type="int" name="KPOINT_BSE">    -1     0     0     0</v>
 </incar>
 <structure name="primitive_cell" >
  <crystal>
   <varray name="basis" >
    <v>      10.56489661       0.00000000       0.00000000 </v>
    <v>       0.00000000      10.56489661       0.00000000 </v>
    <v>       0.00000000       0.00000000      10.56489661 </v>
   </varray>
   <i name="volume">   1179.22249153 </i>
   <varray name="rec_basis" >
    <v>       0.09465308       0.00000000       0.00000000 </v>
    <v>       0.00000000       0.09465308       0.00000000 </v>
    <v>       0.00000000       0.00000000       0.09465308 </v>
   </varray>
  </crystal>
  <varray name="positions" >
   <v>       0.15249267      -0.08008976       0.08479329 </v>
   <v>       0.31410373      -0.09394088       0.21604541 </v>
   <v>       0.13932410      -0.22879677       0.23857744 </v>
   <v>       0.03801264      -0.04714753      -0.09673885 </v>
   <v>       0.34535502      -0.11268779      -0.00975919 </v>
   <v>       0.08821187      -0.01210769       0.28167766 </v>
   <v>       0.22476619      -0.27062916      -0.00658123 </v>
   <v>       0.14736919       0.14290213       0.10600853 </v>
   <v>      -0.04991939       0.03032437       0.11893690 </v>
   <v>      -0.04828865      -0.21090510       0.06186004 </v>
   <v>       0.19862775      -0.11814642       0.32309476 </v>
   <v>       0.11010025      -0.34163883       0.12684446 </v>
   <v>       0.29941124      -0.18528391      -0.13201830 </v>
   <v>       0.00420592       0.15417795       0.19664048 </v>
   <v>       0.06894079      -0.27991596      -0.13093364 </v>
   <v>      -0.07129772      -0.19144128       0.26548609 </v>
   <v>       0.15931314       0.21313160      -0.02050194 </v>
   <v>       0.13612909       0.13310557      -0.14488977 </v>
   <v>      -0.13995390      -0.10048884      -0.02808523 </v>
   <v>       0.27194209       0.13870946       0.28455827 </v>
   <v>       0.24362032      -0.05452971      -0.22236821 </v>
   <v>       0.47663064       0.02823689       0.05242313 </v>
   <v>       0.09869810       0.02025032      -0.23958576 </v>
   <v>       0.43503703      -0.27932735       0.15111032 </v>
   <v>       0.38558058       0.19664554       0.10468494 </v>
   <v>       0.23209605      -0.42608683       0.17336689 </v>
   <v>       0.35100066      -0.18358935       0.37716309 </v>
   <v>       0.38958484       0.08923045      -0.15130009 </v>
   <v>       0.28344805      -0.01016587       0.43222480 </v>
   <v>       0.04496634      -0.43908677       0.01486410 </v>
   <v>       0.08149934      -0.17069876       0.44991034 </v>
   <v>      -0.06449078       0.19738431      -0.06585959 </v>
   <v>       0.23488922      -0.29937478      -0.21907972 </v>
   <v>      -0.09052837       0.11049389       0.31303887 </v>
   <v>      -0.14914391      -0.17306083      -0.16228301 </v>
   <v>      -0.19969595       0.05569945      -0.06300333 </v>
   <v>       0.07692666       0.23660791       0.32740467 </v>
   <v>      -0.45053989      -0.14418283       0.15255949 </v>
   <v>       0.04190709       0.04600762       0.45980139 </v>
   <v>      -0.25417240      -0.14935902       0.05319466 </v>
   <v>       0.17528736      -0.38536262       0.36725102 </v>
   <v>      -0.08694150       0.25976934       0.14362598 </v>
   <v>       0.43248134      -0.36687839      -0.05176135 </v>
   <v>      -0.48814170       0.08593838       0.23637454 </v>
   <v>       0.01041756      -0.44688927       0.24852086 </v>
   <v>      -0.17287910      -0.35692760       0.08703962 </v>
   <v>       0.43090628      -0.19923201      -0.21908823 </v>
   <v>       0.22879210       0.34753859       0.10312844 </v>
   <v>       0.08500757       0.33597732      -0.04378122 </v>
   <v>       0.32026365       0.27470763      -0.11767061 </v>
   <v>      -0.05522831       0.09798426      -0.26507249 </v>
   <v>       0.48912935      -0.05954166       0.37790833 </v>
   <v>      -0.42724899      -0.14424969      -0.05428117 </v>
   <v>      -0.25101611       0.10997102       0.14773031 </v>
   <v>       0.01498058      -0.10032965      -0.34926619 </v>
   <v>       0.16278101       0.06347191      -0.36422376 </v>
   <v>       0.28483387       0.48365595      -0.04057474 </v>
   <v>      -0.18411233      -0.31025891       0.32803057 </v>
   <v>      -0.00527229      -0.32690220      -0.30653684 </v>
   <v>      -0.11410074      -0.43103617      -0.12811930 </v>
   <v>       0.07088460       0.39897413       0.16445351 </v>
   <v>       0.40330502       0.29820199       0.27701218 </v>
   <v>      -0.14629257      -0.11228011       0.47887277 </v>
   <v>      -0.17872752      -0.29674018      -0.22160494 </v>
   <v>       0.25034044       0.23177634       0.46488379 </v>
   <v>       0.48240016       0.29718125       0.12063567 </v>
   <v>      -0.21103529       0.00411375       0.42425169 </v>
   <v>      -0.30426663      -0.06841065       0.30052174 </v>
   <v>       0.41750246      -0.01463737      -0.34090226 </v>
   <v>       0.26776904      -0.15150514      -0.40614761 </v>
   <v>      -0.02206596      -0.20602500      -0.45335982 </v>
   <v>      -0.01565002      -0.35627609       0.48051002 </v>
   <v>       0.12507588       0.49053388      -0.19183229 </v>
   <v>      -0.40908648       0.02017698      -0.16039093 </v>
   <v>       0.16516982       0.31299349      -0.24560065 </v>
   <v>      -0.38484368       0.16213017       0.00977586 </v>
   <v>      -0.03572019       0.45968340      -0.09295109 </v>
   <v>       0.45269103       0.15280439       0.45329060 </v>
   <v>       0.38551392      -0.48245507       0.34059937 </v>
   <v>      -0.35039253      -0.20743954       0.22558301 </v>
   <v>      -0.20535559       0.28737249      -0.07190496 </v>
   <v>       0.42763754      -0.34312038       0.46350001 </v>
   <v>      -0.42459132      -0.32124073       0.32004782 </v>
   <v>      -0.09717503      -0.44540704       0.39806753 </v>
   <v>       0.28781336       0.12570033      -0.43000088 </v>
   <v>       0.32034243       0.42537445       0.23935146 </v>
   <v>       0.23157809      -0.45782683      -0.30101199 </v>
   <v>       0.21855307       0.40287100       0.34291471 </v>
   <v>      -0.31903031       0.13508493      -0.11129920 </v>
   <v>       0.36673324       0.21232426      -0.33705867 </v>
   <v>      -0.10407872       0.42519746       0.04364244 </v>
   <v>      -0.46944002      -0.12788100      -0.32415602 </v>
   <v>      -0.43087250       0.19463931       0.33860306 </v>
   <v>      -0.22369275      -0.04834632      -0.33082981 </v>
   <v>      -0.44609440       0.23212271      -0.15338869 </v>
   <v>      -0.40557293      -0.41999971       0.00111435 </v>
   <v>      -0.35812789      -0.36092331       0.12681969 </v>
   <v>      -0.12607938       0.21485806      -0.31313586 </v>
   <v>      -0.15478836       0.11494577      -0.47787557 </v>
   <v>      -0.47806079      -0.38319835      -0.23042159 </v>
   <v>      -0.33591167      -0.32685538      -0.09043615 </v>
   <v>      -0.30937547       0.11567635       0.37010946 </v>
   <v>      -0.21630081       0.36531186       0.11147751 </v>
   <v>      -0.18911635       0.27793526       0.38741679 </v>
   <v>       0.25473518      -0.37229537      -0.41611374 </v>
   <v>      -0.15940083      -0.25310568      -0.38251550 </v>
   <v>      -0.26353152       0.18763235      -0.24151342 </v>
   <v>       0.45863795       0.34507088      -0.19824928 </v>
   <v>      -0.09191927       0.37500942      -0.21330647 </v>
   <v>       0.12377321       0.36966310       0.47687625 </v>
   <v>      -0.37314718       0.26437804       0.20694387 </v>
   <v>       0.00534658       0.25318448      -0.43573918 </v>
   <v>      -0.49786028       0.43655776       0.17064885 </v>
   <v>       0.47934535       0.40572984      -0.06692310 </v>
   <v>      -0.34450420      -0.20580147      -0.24979113 </v>
   <v>      -0.49803932      -0.22848826      -0.41316764 </v>
   <v>      -0.01673593       0.43570830       0.45346685 </v>
   <v>       0.32185717       0.42331853      -0.26784856 </v>
   <v>      -0.04451038      -0.46495861      -0.38495265 </v>
   <v>      -0.22084086       0.40703714       0.26723366 </v>
   <v>       0.10292083       0.47414793      -0.38690388 </v>
   <v>      -0.38518556      -0.05938226      -0.44541005 </v>
   <v>      -0.40144599       0.49329481       0.32936064 </v>
   <v>      -0.21781810      -0.47492423       0.47766257 </v>
   <v>       0.40293659       0.38815055       0.49640409 </v>
   <v>      -0.26423198      -0.45884038      -0.29842203 </v>
   <v>      -0.40360900       0.29885679       0.43942988 </v>
   <v>      -0.32048935      -0.26185218      -0.45711505 </v>
   <v>      -0.35239399       0.44918076       0.05425027 </v>
   <v>      -0.29488022       0.44315044      -0.12847883 </v>
   <v>      -0.40747173       0.15510960      -0.41035334 </v>
   <v>      -0.41298221      -0.44603608      -0.48232078 </v>
   <v>      -0.46648873       0.38708495      -0.32090225 </v>
   <v>      -0.19479208       0.33414257      -0.41024869 </v>
   <v>      -0.31780691       0.44838178      -0.41639553 </v>
  </varray>
 </structure>
 <varray name="primitive_index" >
  <v type="int" >        1 </v>
  <v type="int" >       83 </v>
  <v type="int" >       95 </v>
  <v type="int" >      134 </v>
  <v type="int" >      128 </v>
  <v type="int" >      105 </v>
  <v type="int" >      123 </v>
  <v type="int" >       71 </v>
  <v type="int" >       94 </v>
  <v type="int" >      130 </v>
  <v type="int" >       33 </v>
  <v type="int" >       47 </v>
  <v type="int" >       44 </v>
  <v type="int" >       43 </v>
  <v type="int" >       12 </v>
  <v type="int" >        9 </v>
  <v type="int" >       39 </v>
  <v type="int" >      106 </v>
  <v type="int" >       34 </v>
  <v type="int" >       27 </v>
  <v type="int" >       79 </v>
  <v type="int" >       26 </v>
  <v type="int" >       38 </v>
  <v type="int" >        4 </v>
  <v type="int" >       59 </v>
  <v type="int" >       82 </v>
  <v type="int" >       63 </v>
  <v type="int" >        6 </v>
  <v type="int" >       75 </v>
  <v type="int" >      100 </v>
  <v type="int" >      107 </v>
  <v type="int" >       17 </v>
  <v type="int" >       73 </v>
  <v type="int" >       87 </v>
  <v type="int" >       69 </v>
  <v type="int" >       98 </v>
  <v type="int" >       90 </v>
  <v type="int" >       80 </v>
  <v type="int" >        2 </v>
  <v type="int" >      110 </v>
  <v type="int" >        8 </v>
  <v type="int" >       67 </v>
  <v type="int" >      120 </v>
  <v type="int" >      132 </v>
  <v type="int" >       60 </v>
  <v type="int" >       10 </v>
  <v type="int" >      104 </v>
  <v type="int" >       96 </v>
  <v type="int" >      118 </v>
  <v type="int" >       64 </v>
  <v type="int" >       97 </v>
  <v type="int" >       23 </v>
  <v type="int" >       14 </v>
  <v type="int" >        7 </v>
  <v type="int" >      113 </v>
  <v type="int" >       68 </v>
  <v type="int" >       20 </v>
  <v type="int" >       91 </v>
  <v type="int" >       85 </v>
  <v type="int" >       93 </v>
  <v type="int" >       16 </v>
  <v type="int" >       70 </v>
  <v type="int" >       65 </v>
  <v type="int" >       36 </v>
  <v type="int" >      129 </v>
  <v type="int" >       45 </v>
  <v type="int" >       40 </v>
  <v type="int" >      115 </v>
  <v type="int" >      119 </v>
  <v type="int" >        5 </v>
  <v type="int" >       32 </v>
  <v type="int" >       66 </v>
  <v type="int" >      127 </v>
  <v type="int" >      121 </v>
  <v type="int" >        3 </v>
  <v type="int" >       57 </v>
  <v type="int" >       46 </v>
  <v type="int" >      124 </v>
  <v type="int" >       89 </v>
  <v type="int" >       35 </v>
  <v type="int" >       99 </v>
  <v type="int" >       21 </v>
  <v type="int" >       61 </v>
  <v type="int" >       28 </v>
  <v type="int" >       52 </v>
  <v type="int" >       29 </v>
  <v type="int" >       41 </v>
  <v type="int" >      135 </v>
  <v type="int" >       42 </v>
  <v type="int" >      126 </v>
  <v type="int" >      111 </v>
  <v type="int" >       30 </v>
  <v type="int" >       31 </v>
  <v type="int" >       13 </v>
  <v type="int" >       55 </v>
  <v type="int" >       51 </v>
  <v type="int" >      133 </v>
  <v type="int" >       37 </v>
  <v type="int" >      101 </v>
  <v type="int" >       19 </v>
  <v type="int" >      114 </v>
  <v type="int" >       81 </v>
  <v type="int" >       49 </v>
  <v type="int" >       25 </v>
  <v type="int" >      108 </v>
  <v type="int" >      131 </v>
  <v type="int" >       76 </v>
  <v type="int" >       54 </v>
  <v type="int" >       84 </v>
  <v type="int" >       50 </v>
  <v type="int" >       88 </v>
  <v type="int" >      125 </v>
  <v type="int" >       78 </v>
  <v type="int" >       74 </v>
  <v type="int" >       62 </v>
  <v type="int" >      102 </v>
  <v type="int" >      117 </v>
  <v type="int" >      103 </v>
  <v type="int" >       48 </v>
  <v type="int" >       92 </v>
  <v type="int" >      112 </v>
  <v type="int" >       77 </v>
  <v type="int" >       24 </v>
  <v type="int" >      109 </v>
  <v type="int" >       11 </v>
  <v type="int" >       58 </v>
  <v type="int" >       56 </v>
  <v type="int" >       15 </v>
  <v type="int" >       86 </v>
  <v type="int" >       22 </v>
  <v type="int" >       18 </v>
  <v type="int" >      116 </v>
  <v type="int" >      122 </v>
  <v type="int" >       72 </v>
  <v type="int" >       53 </v>
 </varray>
 <kpoints>
  <generation param="Gamma">
   <v type="int" name="divisions">       2        2        2 </v>
   <v name="usershift">      0.00000000       0.00000000       0.00000000 </v>
   <v name="genvec1">      0.50000000       0.00000000       0.00000000 </v>
   <v name="genvec2">      0.00000000       0.50000000       0.00000000 </v>
   <v name="genvec3">      0.00000000       0.00000000       0.50000000 </v>
   <v name="shift">      0.00000000       0.00000000       0.00000000 </v>
  </generation>
  <varray name="kpointlist" >
   <v>       0.00000000       0.00000000       0.00000000 </v>
   <v>       0.50000000       0.00000000       0.00000000 </v>
   <v>       0.00000000       0.50000000       0.00000000 </v>
   <v>       0.50000000       0.50000000       0.00000000 </v>
   <v>       0.00000000       0.00000000       0.50000000 </v>
   <v>       0.50000000       0.00000000       0.50000000 </v>
   <v>       0.00000000       0.50000000       0.50000000 </v>
   <v>       0.50000000       0.50000000       0.50000000 </v>
  </varray>
  <varray name="weights" >
   <v>       0.12500000 </v>
   <v>       0.12500000 </v>
   <v>       0.12500000 </v>
   <v>       0.12500000 </v>
   <v>       0.12500000 </v>
   <v>       0.12500000 </v>
   <v>       0.12500000 </v>
   <v>       0.12500000 </v>
  </varray>
 </kpoints>
 <parameters>
  <separator name="general" >
   <i type="string" name="SYSTEM">unknown system</i>
   <i type="logical" name="LCOMPAT"> F  </i>
  </separator>
  <separator name="electronic" >
   <i type="string" name="PREC">a</i>
   <i name="ENMAX">    600.00000000</i>
   <i name="ENAUG">    605.39200000</i>
   <i name="EDIFF">      0.00000100</i>
   <i type="int" name="IALGO">    38</i>
   <i type="int" name="IWAVPR">    10</i>
   <i type="int" name="NBANDS">   520</i>
   <i name="NELECT">    864.00000000</i>
   <i type="int" name="TURBO">     0</i>
   <i type="int" name="IRESTART">     0</i>
   <i type="int" name="NREBOOT">     0</i>
   <i type="int" name="NMIN">     0</i>
   <i name="EREF">      0.00000000</i>
   <separator name="electronic smearing" >
    <i type="int" name="ISMEAR">     0</i>
    <i name="SIGMA">      0.05000000</i>
    <i name="KSPACING">      0.30000000</i>
    <i type="logical" name="KGAMMA"> T  </i>
   </separator>
   <separator name="electronic projectors" >
    <i type="logical" name="LREAL"> T  </i>
    <v name="ROPT">     -0.00025000     -0.00025000     -0.00025000</v>
    <i type="int" name="LMAXPAW">  -100</i>
    <i type="int" name="LMAXMIX">     2</i>
    <i type="logical" name="NLSPLINE"> F  </i>
   </separator>
   <separator name="electronic startup" >
    <i type="int" name="ISTART">     0</i>
    <i type="int" name="ICHARG">     2</i>
    <i type="int" name="INIWAV">     1</i>
   </separator>
   <separator name="electronic spin" >
    <i type="int" name="ISPIN">     1</i>
    <i type="logical" name="LNONCOLLINEAR"> F  </i>
    <v name="MAGMOM">      1.00000000      1.00000000      1.00000000      1.00000000      1.00000000      1.00000000      1.00000000      1.00000000      1.00000000      1.00000000      1.00000000      1.00000000      1.00000000      1.00000000      1.00000000      1.00000000      1.00000000      1.00000000      1.00000000      1.00000000
      1.00000000      1.00000000      1.00000000      1.00000000      1.00000000      1.00000000      1.00000000      1.00000000      1.00000000      1.00000000      1.00000000      1.00000000      1.00000000      1.00000000      1.00000000      1.00000000      1.00000000      1.00000000      1.00000000      1.00000000
      1.00000000      1.00000000      1.00000000      1.00000000      1.00000000      1.00000000      1.00000000      1.00000000      1.00000000      1.00000000      1.00000000      1.00000000      1.00000000      1.00000000      1.00000000      1.00000000      1.00000000      1.00000000      1.00000000      1.00000000
      1.00000000      1.00000000      1.00000000      1.00000000      1.00000000      1.00000000      1.00000000      1.00000000      1.00000000      1.00000000      1.00000000      1.00000000      1.00000000      1.00000000      1.00000000      1.00000000      1.00000000      1.00000000      1.00000000      1.00000000
      1.00000000      1.00000000      1.00000000      1.00000000      1.00000000      1.00000000      1.00000000      1.00000000      1.00000000      1.00000000      1.00000000      1.00000000      1.00000000      1.00000000      1.00000000      1.00000000      1.00000000      1.00000000      1.00000000      1.00000000
      1.00000000      1.00000000      1.00000000      1.00000000      1.00000000      1.00000000      1.00000000      1.00000000      1.00000000      1.00000000      1.00000000      1.00000000      1.00000000      1.00000000      1.00000000      1.00000000      1.00000000      1.00000000      1.00000000      1.00000000
      1.00000000      1.00000000      1.00000000      1.00000000      1.00000000      1.00000000      1.00000000      1.00000000      1.00000000      1.00000000      1.00000000      1.00000000      1.00000000      1.00000000      1.00000000</v>
    <i name="NUPDOWN">     -1.00000000</i>
    <i type="logical" name="LSORBIT"> F  </i>
    <v name="SAXIS">      0.00000000      0.00000000      1.00000000</v>
    <i type="logical" name="LSPIRAL"> F  </i>
    <v name="QSPIRAL">      0.00000000      0.00000000      0.00000000</v>
    <i type="logical" name="LZEROZ"> F  </i>
   </separator>
   <separator name="electronic exchange-correlation" >
    <i type="logical" name="LASPH"> F  </i>
    <i type="logical" name="LMETAGGA"> F  </i>
   </separator>
   <separator name="electronic convergence" >
    <i type="int" name="NELM">    60</i>
    <i type="int" name="NELMDL">    -5</i>
    <i type="int" name="NELMIN">     2</i>
    <i name="ENINI">    600.00000000</i>
    <separator name="electronic convergence detail" >
     <i type="logical" name="LDIAG"> T  </i>
     <i type="logical" name="LSUBROT"> F  </i>
     <i name="WEIMIN">      0.00000000</i>
     <i name="EBREAK">      0.00000000</i>
     <i name="DEPER">      0.30000000</i>
     <i type="int" name="NRMM">     4</i>
     <i name="TIME">      0.40000000</i>
    </separator>
   </separator>
   <separator name="electronic mixer" >
    <i name="AMIX">      0.40000000</i>
    <i name="BMIX">      1.00000000</i>
    <i name="AMIN">      0.10000000</i>
    <i name="AMIX_MAG">      1.60000000</i>
    <i name="BMIX_MAG">      1.00000000</i>
    <separator name="electronic mixer details" >
     <i type="int" name="IMIX">     4</i>
     <i type="logical" name="MIXFIRST"> F  </i>
     <i type="int" name="MAXMIX">   -45</i>
     <i name="WC">    100.00000000</i>
     <i type="int" name="INIMIX">     1</i>
     <i type="int" name="MIXPRE">     1</i>
     <i type="int" name="MREMOVE">     5</i>
    </separator>
   </separator>
   <separator name="electronic dipolcorrection" >
    <i type="logical" name="LDIPOL"> F  </i>
    <i type="logical" name="LMONO"> F  </i>
    <i type="int" name="IDIPOL">     0</i>
    <i name="EPSILON">      1.00000000</i>
    <v name="DIPOL">   -100.00000000   -100.00000000   -100.00000000</v>
    <i name="EFIELD">      0.00000000</i>
   </separator>
  </separator>
  <separator name="grids" >
   <i type="int" name="NGX">    84</i>
   <i type="int" name="NGY">    84</i>
   <i type="int" name="NGZ">    84</i>
   <i type="int" name="NGXF">   168</i>
   <i type="int" name="NGYF">   168</i>
   <i type="int" name="NGZF">   168</i>
   <i type="logical" name="ADDGRID"> T  </i>
  </separator>
  <separator name="ionic" >
   <i type="int" name="NSW">     1</i>
   <i type="int" name="IBRION">    -1</i>
   <i type="int" name="MDALGO">     0</i>
   <i type="int" name="ISIF">     2</i>
   <i name="PSTRESS">      0.00000000</i>
   <i name="EDIFFG">     -0.01000000</i>
   <i type="int" name="NFREE">     0</i>
   <i name="POTIM">      1.00000000</i>
   <i name="SMASS">     -3.00000000</i>
   <i name="SCALEE">      1.00000000</i>
  </separator>
  <separator name="ionic md" >
   <i name="TEBEG">      0.00010000</i>
   <i name="TEEND">      0.00010000</i>
   <i type="int" name="NBLOCK">     1</i>
   <i type="int" name="KBLOCK">     1</i>
   <i type="int" name="NPACO">   256</i>
   <i name="APACO">     16.00000000</i>
  </separator>
  <separator name="symmetry" >
   <i type="int" name="ISYM">     0</i>
   <i name="SYMPREC">      0.00001000</i>
  </separator>
  <separator name="dos" >
   <i type="int" name="LORBIT">     0</i>
   <v name="RWIGS">     -1.00000000     -1.00000000     -1.00000000</v>
   <i type="int" name="NEDOS">   301</i>
   <i name="EMIN">     10.00000000</i>
   <i name="EMAX">    -10.00000000</i>
   <i name="EFERMI">      0.00000000</i>
  </separator>
  <separator name="writing" >
   <i type="int" name="NWRITE">     2</i>
   <i type="logical" name="LWAVE"> F  </i>
   <i type="logical" name="LDOWNSAMPLE"> F  </i>
   <i type="logical" name="LCHARG"> F  </i>
   <i type="logical" name="LPARD"> F  </i>
   <i type="logical" name="LVTOT"> F  </i>
   <i type="logical" name="LVHAR"> F  </i>
   <i type="logical" name="LELF"> F  </i>
   <i type="logical" name="LOPTICS"> F  </i>
   <v name="STM">      0.00000000      0.00000000      0.00000000      0.00000000      0.00000000      0.00000000      0.00000000</v>
  </separator>
  <separator name="performance" >
   <i type="int" name="NPAR">     4</i>
   <i type="int" name="NSIM">     4</i>
   <i type="int" name="NBLK">    -1</i>
   <i type="logical" name="LPLANE"> T  </i>
   <i type="logical" name="LSCALAPACK"> F  </i>
   <i type="logical" name="LSCAAWARE"> F  </i>
   <i type="logical" name="LSCALU"> F  </i>
   <i type="logical" name="LASYNC"> F  </i>
   <i type="logical" name="LORBITALREAL"> F  </i>
  </separator>
  <separator name="miscellaneous" >
   <i type="int" name="IDIOT">     3</i>
   <i type="int" name="ISPECIAL">     0</i>
   <i type="logical" name="LMUSIC"> F  </i>
   <v name="POMASS">     40.07800000     28.08500000     16.00000000</v>
   <v name="DARWINR">      0.00000000      0.00000000      0.00000000</v>
   <v name="DARWINV">      1.00000000      1.00000000      1.00000000</v>
   <i type="logical" name="LCORR"> T  </i>
  </separator>
  <i type="logical" name="GGA_COMPAT"> T  </i>
  <i type="logical" name="LBERRY"> F  </i>
  <i type="int" name="ICORELEVEL">     0</i>
  <i type="logical" name="LDAU"> F  </i>
  <i type="int" name="I_CONSTRAINED_M">     0</i>
  <separator name="electronic exchange-correlation" >
   <i type="string" name="GGA">--</i>
   <i type="int" name="VOSKOWN">     0</i>
   <i type="logical" name="LHFCALC"> F  </i>
   <i type="string" name="PRECFOCK"></i>
   <i type="logical" name="LSYMGRAD"> F  </i>
   <i type="logical" name="LHFONE"> F  </i>
   <i type="logical" name="LRHFCALC"> F  </i>
   <i type="logical" name="LTHOMAS"> F  </i>
   <i type="logical" name="LMODELHF"> F  </i>
   <i name="ENCUT4O">     -1.00000000</i>
   <i type="int" name="EXXOEP">     0</i>
   <i type="int" name="FOURORBIT">     0</i>
   <i name="AEXX">      0.00000000</i>
   <i name="HFALPHA">      0.00000000</i>
   <i name="MCALPHA">      0.00000000</i>
   <i name="ALDAX">      1.00000000</i>
   <i name="AGGAX">      1.00000000</i>
   <i name="ALDAC">      1.00000000</i>
   <i name="AGGAC">      1.00000000</i>
   <i type="int" name="NKREDX">     1</i>
   <i type="int" name="NKREDY">     1</i>
   <i type="int" name="NKREDZ">     1</i>
   <i type="logical" name="SHIFTRED"> F  </i>
   <i type="logical" name="ODDONLY"> F  </i>
   <i type="logical" name="EVENONLY"> F  </i>
   <i type="int" name="LMAXFOCK">     0</i>
   <i type="int" name="NMAXFOCKAE">     0</i>
   <i type="logical" name="LFOCKAEDFT"> F  </i>
   <i name="HFSCREEN">      0.00000000</i>
   <i name="HFSCREENC">      0.00000000</i>
   <i type="int" name="NBANDSGWLOW">     0</i>
  </separator>
  <separator name="vdW DFT" >
   <i type="logical" name="LUSE_VDW"> F  </i>
   <i name="Zab_VDW">     -0.84910000</i>
   <i name="PARAM1">      0.12340000</i>
   <i name="PARAM2">      1.00000000</i>
   <i name="PARAM3">      0.00000000</i>
  </separator>
  <separator name="model GW" >
   <i type="int" name="MODEL_GW">     0</i>
   <i name="MODEL_EPS0">      5.24098885</i>
   <i name="MODEL_ALPHA">      1.00000000</i>
  </separator>
  <separator name="linear response parameters" >
   <i type="logical" name="LEPSILON"> F  </i>
   <i type="logical" name="LRPA"> F  </i>
   <i type="logical" name="LNABLA"> F  </i>
   <i type="logical" name="LVEL"> F  </i>
   <i type="int" name="KINTER">     0</i>
   <i name="CSHIFT">      0.10000000</i>
   <i name="OMEGAMAX">     -1.00000000</i>
   <i name="DEG_THRESHOLD">      0.00200000</i>
   <i name="RTIME">     -0.10000000</i>
   <i name="WPLASMAI">      0.00000000</i>
   <v name="DFIELD">      0.00000000      0.00000000      0.00000000</v>
   <v name="WPLASMA">      0.00000000      0.00000000      0.00000000      0.00000000      0.00000000      0.00000000      0.00000000      0.00000000      0.00000000</v>
  </separator>
  <separator name="orbital magnetization" >
   <i type="logical" name="NUCIND"> F  </i>
   <v name="MAGPOS">      0.00000000      0.00000000      0.00000000</v>
   <i type="logical" name="LNICSALL"> T  </i>
   <i type="logical" name="ORBITALMAG"> F  </i>
   <i type="logical" name="LMAGBLOCH"> F  </i>
   <i type="logical" name="LCHIMAG"> F  </i>
   <i type="logical" name="LGAUGE"> T  </i>
   <i type="int" name="MAGATOM">     0</i>
   <v name="MAGDIPOL">      0.00000000      0.00000000      0.00000000</v>
   <v name="AVECCONST">      0.00000000      0.00000000      0.00000000</v>
  </separator>
  <separator name="response functions" >
   <i type="logical" name="LADDER"> F  </i>
   <i type="logical" name="LRPAFORCE"> F  </i>
   <i type="logical" name="LFXC"> F  </i>
   <i type="logical" name="LHARTREE"> T  </i>
   <i type="int" name="IBSE">     0</i>
   <v type="int" name="KPOINT">    -1     0     0     0</v>
   <i type="logical" name="LTCTE"> F  </i>
   <i type="logical" name="LTETE"> F  </i>
   <i type="logical" name="LTRIPLET"> F  </i>
   <i type="logical" name="LFXCEPS"> F  </i>
   <i type="logical" name="LFXHEG"> F  </i>
   <i type="int" name="NATURALO">     2</i>
   <i type="logical" name="L2ORDER"> F  </i>
   <i type="logical" name="LMP2LT"> F  </i>
   <i type="logical" name="LUSEW"> F  </i>
   <i name="ENCUTGW">     -2.00000000</i>
   <i name="ENCUTGWSOFT">     -2.00000000</i>
   <i name="ENCUTLF">     -1.00000000</i>
   <i type="int" name="LMAXMP2">    -1</i>
   <i name="SCISSOR">      0.00000000</i>
   <i type="int" name="NOMEGA">     0</i>
   <i type="int" name="NOMEGAR">     0</i>
   <i type="int" name="NBANDSGW">    -1</i>
   <i type="int" name="NBANDSO">    -1</i>
   <i type="int" name="NBANDSV">    -1</i>
   <i type="int" name="NELM">     1</i>
   <i type="int" name="NELMHF">     1</i>
   <i type="int" name="DIM">     3</i>
   <i type="int" name="ANTIRES">     0</i>
   <i name="OMEGAMAX">    -30.00000000</i>
   <i name="OMEGAMIN">    -30.00000000</i>
   <i name="OMEGATL">   -200.00000000</i>
   <i type="int" name="OMEGAGRID">   140</i>
   <i name="CSHIFT">     -0.10000000</i>
   <i type="logical" name="SELFENERGY"> F  </i>
   <i type="logical" name="LSPECTRAL"> F  </i>
   <i type="logical" name="LSPECTRALGW"> F  </i>
   <i type="logical" name="LSINGLES"> F  </i>
   <i type="logical" name="LFERMIGW"> F  </i>
   <i type="logical" name="ODDONLYGW"> F  </i>
   <i type="logical" name="EVENONLYGW"> F  </i>
   <i type="int" name="NKREDLFX">     1</i>
   <i type="int" name="NKREDLFY">     1</i>
   <i type="int" name="NKREDLFZ">     1</i>
   <i type="int" name="MAXMEM">  2800</i>
   <i type="int" name="TELESCOPE">     0</i>
   <i type="int" name="TAUPAR">     1</i>
   <i type="int" name="OMEGAPAR">    -1</i>
   <i name="LAMBDA">      1.00000000</i>
  </separator>
  <separator name="External order field" >
   <i name="OFIELD_KAPPA">      0.00000000</i>
   <v name="OFIELD_K">      0.00000000      0.00000000      0.00000000</v>
   <i name="OFIELD_Q6_NEAR">      0.00000000</i>
   <i name="OFIELD_Q6_FAR">      0.00000000</i>
   <i name="OFIELD_A">      0.00000000</i>
  </separator>
 </parameters>
 <atominfo>
  <atoms>     135 </atoms>
  <types>       3 </types>
  <array name="atoms" >
   <dimension dim="1">ion</dimension>
   <field type="string">element</field>
   <field type="int">atomtype</field>
   <set>
    <rc><c>Ca</c><c>   1</c></rc>
    <rc><c>Ca</c><c>   1</c></rc>
    <rc><c>Ca</c><c>   1</c></rc>
    <rc><c>Ca</c><c>   1</c></rc>
    <rc><c>Ca</c><c>   1</c></rc>
    <rc><c>Ca</c><c>   1</c></rc>
    <rc><c>Ca</c><c>   1</c></rc>
    <rc><c>Ca</c><c>   1</c></rc>
    <rc><c>Ca</c><c>   1</c></rc>
    <rc><c>Ca</c><c>   1</c></rc>
    <rc><c>Ca</c><c>   1</c></rc>
    <rc><c>Ca</c><c>   1</c></rc>
    <rc><c>Ca</c><c>   1</c></rc>
    <rc><c>Ca</c><c>   1</c></rc>
    <rc><c>Ca</c><c>   1</c></rc>
    <rc><c>Ca</c><c>   1</c></rc>
    <rc><c>Ca</c><c>   1</c></rc>
    <rc><c>Ca</c><c>   1</c></rc>
    <rc><c>Ca</c><c>   1</c></rc>
    <rc><c>Ca</c><c>   1</c></rc>
    <rc><c>Ca</c><c>   1</c></rc>
    <rc><c>Ca</c><c>   1</c></rc>
    <rc><c>Ca</c><c>   1</c></rc>
    <rc><c>Ca</c><c>   1</c></rc>
    <rc><c>Ca</c><c>   1</c></rc>
    <rc><c>Ca</c><c>   1</c></rc>
    <rc><c>Ca</c><c>   1</c></rc>
    <rc><c>Si</c><c>   2</c></rc>
    <rc><c>Si</c><c>   2</c></rc>
    <rc><c>Si</c><c>   2</c></rc>
    <rc><c>Si</c><c>   2</c></rc>
    <rc><c>Si</c><c>   2</c></rc>
    <rc><c>Si</c><c>   2</c></rc>
    <rc><c>Si</c><c>   2</c></rc>
    <rc><c>Si</c><c>   2</c></rc>
    <rc><c>Si</c><c>   2</c></rc>
    <rc><c>Si</c><c>   2</c></rc>
    <rc><c>Si</c><c>   2</c></rc>
    <rc><c>Si</c><c>   2</c></rc>
    <rc><c>Si</c><c>   2</c></rc>
    <rc><c>Si</c><c>   2</c></rc>
    <rc><c>Si</c><c>   2</c></rc>
    <rc><c>Si</c><c>   2</c></rc>
    <rc><c>Si</c><c>   2</c></rc>
    <rc><c>Si</c><c>   2</c></rc>
    <rc><c>Si</c><c>   2</c></rc>
    <rc><c>Si</c><c>   2</c></rc>
    <rc><c>Si</c><c>   2</c></rc>
    <rc><c>Si</c><c>   2</c></rc>
    <rc><c>Si</c><c>   2</c></rc>
    <rc><c>Si</c><c>   2</c></rc>
    <rc><c>Si</c><c>   2</c></rc>
    <rc><c>Si</c><c>   2</c></rc>
    <rc><c>Si</c><c>   2</c></rc>
    <rc><c>O </c><c>   3</c></rc>
    <rc><c>O </c><c>   3</c></rc>
    <rc><c>O </c><c>   3</c></rc>
    <rc><c>O </c><c>   3</c></rc>
    <rc><c>O </c><c>   3</c></rc>
    <rc><c>O </c><c>   3</c></rc>
    <rc><c>O </c><c>   3</c></rc>
    <rc><c>O </c><c>   3</c></rc>
    <rc><c>O </c><c>   3</c></rc>
    <rc><c>O </c><c>   3</c></rc>
    <rc><c>O </c><c>   3</c></rc>
    <rc><c>O </c><c>   3</c></rc>
    <rc><c>O </c><c>   3</c></rc>
    <rc><c>O </c><c>   3</c></rc>
    <rc><c>O </c><c>   3</c></rc>
    <rc><c>O </c><c>   3</c></rc>
    <rc><c>O </c><c>   3</c></rc>
    <rc><c>O </c><c>   3</c></rc>
    <rc><c>O </c><c>   3</c></rc>
    <rc><c>O </c><c>   3</c></rc>
    <rc><c>O </c><c>   3</c></rc>
    <rc><c>O </c><c>   3</c></rc>
    <rc><c>O </c><c>   3</c></rc>
    <rc><c>O </c><c>   3</c></rc>
    <rc><c>O </c><c>   3</c></rc>
    <rc><c>O </c><c>   3</c></rc>
    <rc><c>O </c><c>   3</c></rc>
    <rc><c>O </c><c>   3</c></rc>
    <rc><c>O </c><c>   3</c></rc>
    <rc><c>O </c><c>   3</c></rc>
    <rc><c>O </c><c>   3</c></rc>
    <rc><c>O </c><c>   3</c></rc>
    <rc><c>O </c><c>   3</c></rc>
    <rc><c>O </c><c>   3</c></rc>
    <rc><c>O </c><c>   3</c></rc>
    <rc><c>O </c><c>   3</c></rc>
    <rc><c>O </c><c>   3</c></rc>
    <rc><c>O </c><c>   3</c></rc>
    <rc><c>O </c><c>   3</c></rc>
    <rc><c>O </c><c>   3</c></rc>
    <rc><c>O </c><c>   3</c></rc>
    <rc><c>O </c><c>   3</c></rc>
    <rc><c>O </c><c>   3</c></rc>
    <rc><c>O </c><c>   3</c></rc>
    <rc><c>O </c><c>   3</c></rc>
    <rc><c>O </c><c>   3</c></rc>
    <rc><c>O </c><c>   3</c></rc>
    <rc><c>O </c><c>   3</c></rc>
    <rc><c>O </c><c>   3</c></rc>
    <rc><c>O </c><c>   3</c></rc>
    <rc><c>O </c><c>   3</c></rc>
    <rc><c>O </c><c>   3</c></rc>
    <rc><c>O </c><c>   3</c></rc>
    <rc><c>O </c><c>   3</c></rc>
    <rc><c>O </c><c>   3</c></rc>
    <rc><c>O </c><c>   3</c></rc>
    <rc><c>O </c><c>   3</c></rc>
    <rc><c>O </c><c>   3</c></rc>
    <rc><c>O </c><c>   3</c></rc>
    <rc><c>O </c><c>   3</c></rc>
    <rc><c>O </c><c>   3</c></rc>
    <rc><c>O </c><c>   3</c></rc>
    <rc><c>O </c><c>   3</c></rc>
    <rc><c>O </c><c>   3</c></rc>
    <rc><c>O </c><c>   3</c></rc>
    <rc><c>O </c><c>   3</c></rc>
    <rc><c>O </c><c>   3</c></rc>
    <rc><c>O </c><c>   3</c></rc>
    <rc><c>O </c><c>   3</c></rc>
    <rc><c>O </c><c>   3</c></rc>
    <rc><c>O </c><c>   3</c></rc>
    <rc><c>O </c><c>   3</c></rc>
    <rc><c>O </c><c>   3</c></rc>
    <rc><c>O </c><c>   3</c></rc>
    <rc><c>O </c><c>   3</c></rc>
    <rc><c>O </c><c>   3</c></rc>
    <rc><c>O </c><c>   3</c></rc>
    <rc><c>O </c><c>   3</c></rc>
    <rc><c>O </c><c>   3</c></rc>
    <rc><c>O </c><c>   3</c></rc>
    <rc><c>O </c><c>   3</c></rc>
   </set>
  </array>
  <array name="atomtypes" >
   <dimension dim="1">type</dimension>
   <field type="int">atomspertype</field>
   <field type="string">element</field>
   <field>mass</field>
   <field>valence</field>
   <field type="string">pseudopotential</field>
   <set>
    <rc><c>  27</c><c>Ca</c><c>     40.07800000</c><c>     10.00000000</c><c>  PAW_PBE Ca_sv 06Sep2000               </c></rc>
    <rc><c>  27</c><c>Si</c><c>     28.08500000</c><c>      4.00000000</c><c>  PAW_PBE Si 05Jan2001                  </c></rc>
    <rc><c>  81</c><c>O </c><c>     16.00000000</c><c>      6.00000000</c><c>  PAW_PBE O 08Apr2002                   </c></rc>
   </set>
  </array>
 </atominfo>
 <structure name="initialpos" >
  <crystal>
   <varray name="basis" >
    <v>      10.56489661       0.00000000       0.00000000 </v>
    <v>       0.00000000      10.56489661       0.00000000 </v>
    <v>       0.00000000       0.00000000      10.56489661 </v>
   </varray>
   <i name="volume">   1179.22249153 </i>
   <varray name="rec_basis" >
    <v>       0.09465308       0.00000000       0.00000000 </v>
    <v>       0.00000000       0.09465308       0.00000000 </v>
    <v>       0.00000000       0.00000000       0.09465308 </v>
   </varray>
  </crystal>
  <varray name="positions" >
   <v>       0.15249267       0.91991024       0.08479329 </v>
   <v>       0.04190709       0.04600762       0.45980139 </v>
   <v>       0.16516982       0.31299349       0.75439935 </v>
   <v>       0.43503703       0.72067265       0.15111032 </v>
   <v>       0.26776904       0.84849486       0.59385239 </v>
   <v>       0.38958484       0.08923045       0.84869991 </v>
   <v>       0.74898389       0.10997102       0.14773031 </v>
   <v>       0.17528736       0.61463738       0.36725102 </v>
   <v>       0.92870228       0.80855872       0.26548609 </v>
   <v>       0.82712090       0.64307240       0.08703962 </v>
   <v>       0.40293659       0.38815055       0.49640409 </v>
   <v>       0.06894079       0.72008404       0.86906636 </v>
   <v>       0.77630725       0.95165368       0.66917019 </v>
   <v>       0.57275101       0.85575031       0.94571883 </v>
   <v>       0.67951065       0.73814782       0.54288495 </v>
   <v>       0.07088460       0.39897413       0.16445351 </v>
   <v>       0.93550922       0.19738431       0.93414041 </v>
   <v>       0.59252827       0.15510960       0.58964666 </v>
   <v>       0.52193921       0.61680165       0.76957841 </v>
   <v>       0.28483387       0.48365595       0.95942526 </v>
   <v>       0.42763754       0.65687962       0.46350001 </v>
   <v>       0.70511978       0.44315044       0.87152117 </v>
   <v>       0.48912935       0.94045834       0.37790833 </v>
   <v>       0.59855401       0.49329481       0.32936064 </v>
   <v>       0.81088365       0.27793526       0.38741679 </v>
   <v>       0.47663064       0.02823689       0.05242313 </v>
   <v>       0.27194209       0.13870946       0.28455827 </v>
   <v>       0.90282497       0.55459296       0.39806753 </v>
   <v>       0.32034243       0.42537445       0.23935146 </v>
   <v>       0.53055998       0.87211900       0.67584398 </v>
   <v>       0.56912750       0.19463931       0.33860306 </v>
   <v>       0.97793404       0.79397500       0.54664018 </v>
   <v>       0.19862775       0.88185358       0.32309476 </v>
   <v>       0.86004610       0.89951116       0.97191477 </v>
   <v>       0.64960747       0.79256046       0.22558301 </v>
   <v>       0.82127248       0.70325982       0.77839506 </v>
   <v>       0.87392062       0.21485806       0.68686414 </v>
   <v>       0.09869810       0.02025032       0.76041424 </v>
   <v>       0.15931314       0.21313160       0.97949806 </v>
   <v>       0.78896471       0.00411375       0.42425169 </v>
   <v>       0.23157809       0.54217317       0.69898801 </v>
   <v>       0.68096969       0.13508493       0.88870080 </v>
   <v>       0.00420592       0.15417795       0.19664048 </v>
   <v>       0.29941124       0.81471609       0.86798170 </v>
   <v>       0.48240016       0.29718125       0.12063567 </v>
   <v>       0.96427981       0.45968340       0.90704891 </v>
   <v>       0.11010025       0.65836117       0.12684446 </v>
   <v>       0.95548962       0.53504139       0.61504735 </v>
   <v>       0.78369919       0.36531186       0.11147751 </v>
   <v>       0.12377321       0.36966310       0.47687625 </v>
   <v>       0.59442707       0.58000029       0.00111435 </v>
   <v>       0.28781336       0.12570033       0.56999912 </v>
   <v>       0.68219309       0.44838178       0.58360447 </v>
   <v>       0.45863795       0.34507088       0.80175072 </v>
   <v>       0.55390560       0.23212271       0.84661131 </v>
   <v>       0.59639100       0.29885679       0.43942988 </v>
   <v>       0.61515632       0.16213017       0.00977586 </v>
   <v>       0.73576802       0.54115962       0.70157797 </v>
   <v>       0.38558058       0.19664554       0.10468494 </v>
   <v>       0.01041756       0.55311073       0.24852086 </v>
   <v>       0.57540868       0.67875927       0.32004782 </v>
   <v>       0.65549580       0.79419853       0.75020887 </v>
   <v>       0.35100066       0.81641065       0.37716309 </v>
   <v>       0.32026365       0.27470763       0.88232939 </v>
   <v>       0.85370743       0.88771989       0.47887277 </v>
   <v>       0.98434998       0.64372391       0.48051002 </v>
   <v>       0.91305850       0.25976934       0.14362598 </v>
   <v>       0.16278101       0.06347191       0.63577624 </v>
   <v>       0.85085609       0.82693917       0.83771699 </v>
   <v>       0.40330502       0.29820199       0.27701218 </v>
   <v>       0.14736919       0.14290213       0.10600853 </v>
   <v>       0.80520792       0.33414257       0.58975131 </v>
   <v>       0.23488922       0.70062522       0.78092028 </v>
   <v>       0.47934535       0.40572984       0.93307690 </v>
   <v>       0.28344805       0.98983413       0.43222480 </v>
   <v>       0.73646848       0.18763235       0.75848658 </v>
   <v>       0.61481444       0.94061774       0.55458995 </v>
   <v>       0.50213972       0.43655776       0.17064885 </v>
   <v>       0.24362032       0.94547029       0.77763179 </v>
   <v>       0.54946011       0.85581717       0.15255949 </v>
   <v>       0.69062453       0.11567635       0.37010946 </v>
   <v>       0.23209605       0.57391317       0.17336689 </v>
   <v>       0.31410373       0.90605912       0.21604541 </v>
   <v>       0.90808073       0.37500942       0.78669353 </v>
   <v>       0.99472771       0.67309780       0.69346316 </v>
   <v>       0.64760601       0.44918076       0.05425027 </v>
   <v>       0.90947163       0.11049389       0.31303887 </v>
   <v>       0.62685282       0.26437804       0.20694387 </v>
   <v>       0.38551392       0.51754493       0.34059937 </v>
   <v>       0.07692666       0.23660791       0.32740467 </v>
   <v>       0.81588767       0.68974109       0.32803057 </v>
   <v>       0.77915914       0.40703714       0.26723366 </v>
   <v>       0.88589926       0.56896383       0.87188070 </v>
   <v>       0.95008061       0.03032437       0.11893690 </v>
   <v>       0.13932410       0.77120323       0.23857744 </v>
   <v>       0.22879210       0.34753859       0.10312844 </v>
   <v>       0.94477169       0.09798426       0.73492751 </v>
   <v>       0.80030405       0.05569945       0.93699667 </v>
   <v>       0.79464441       0.28737249       0.92809504 </v>
   <v>       0.04496634       0.56091323       0.01486410 </v>
   <v>       0.84521164       0.11494577       0.52212443 </v>
   <v>       0.50196068       0.77151174       0.58683236 </v>
   <v>       0.32185717       0.42331853       0.73215144 </v>
   <v>       0.43090628       0.80076799       0.78091177 </v>
   <v>       0.08821187       0.98789231       0.28167766 </v>
   <v>       0.13612909       0.13310557       0.85511023 </v>
   <v>       0.08149934       0.82930124       0.44991034 </v>
   <v>       0.25473518       0.62770463       0.58388626 </v>
   <v>       0.78218190       0.52507577       0.47766257 </v>
   <v>       0.74582760       0.85064098       0.05319466 </v>
   <v>       0.89592128       0.42519746       0.04364244 </v>
   <v>       0.10292083       0.47414793       0.61309612 </v>
   <v>       0.01498058       0.89967035       0.65073381 </v>
   <v>       0.66408833       0.67314462       0.90956385 </v>
   <v>       0.69573337       0.93158935       0.30052174 </v>
   <v>       0.58701779       0.55396392       0.51767922 </v>
   <v>       0.98326407       0.43570830       0.45346685 </v>
   <v>       0.08500757       0.33597732       0.95621878 </v>
   <v>       0.41750246       0.98536263       0.65909774 </v>
   <v>       0.43248134       0.63312161       0.94823865 </v>
   <v>       0.59091352       0.02017698       0.83960907 </v>
   <v>       0.53351127       0.38708495       0.67909775 </v>
   <v>       0.22476619       0.72937084       0.99341877 </v>
   <v>       0.45269103       0.15280439       0.45329060 </v>
   <v>       0.00534658       0.25318448       0.56426082 </v>
   <v>       0.36673324       0.21232426       0.66294133 </v>
   <v>       0.12507588       0.49053388       0.80816771 </v>
   <v>       0.34535502       0.88731221       0.99024081 </v>
   <v>       0.25034044       0.23177634       0.46488379 </v>
   <v>       0.95171135       0.78909490       0.06186004 </v>
   <v>       0.84059917       0.74689432       0.61748450 </v>
   <v>       0.51185830       0.08593838       0.23637454 </v>
   <v>       0.64187211       0.63907669       0.12681969 </v>
   <v>       0.03801264       0.95285247       0.90326115 </v>
   <v>       0.21855307       0.40287100       0.34291471 </v>
  </varray>
  <varray name="velocities" >
   <v>       0.00000000       0.00000000       0.00000000 </v>
   <v>       0.00000000       0.00000000       0.00000000 </v>
   <v>       0.00000000       0.00000000       0.00000000 </v>
   <v>       0.00000000       0.00000000       0.00000000 </v>
   <v>       0.00000000       0.00000000       0.00000000 </v>
   <v>       0.00000000       0.00000000       0.00000000 </v>
   <v>       0.00000000       0.00000000       0.00000000 </v>
   <v>       0.00000000       0.00000000       0.00000000 </v>
   <v>       0.00000000       0.00000000       0.00000000 </v>
   <v>       0.00000000       0.00000000       0.00000000 </v>
   <v>       0.00000000       0.00000000       0.00000000 </v>
   <v>       0.00000000       0.00000000       0.00000000 </v>
   <v>       0.00000000       0.00000000       0.00000000 </v>
   <v>       0.00000000       0.00000000       0.00000000 </v>
   <v>       0.00000000       0.00000000       0.00000000 </v>
   <v>       0.00000000       0.00000000       0.00000000 </v>
   <v>       0.00000000       0.00000000       0.00000000 </v>
   <v>       0.00000000       0.00000000       0.00000000 </v>
   <v>       0.00000000       0.00000000       0.00000000 </v>
   <v>       0.00000000       0.00000000       0.00000000 </v>
   <v>       0.00000000       0.00000000       0.00000000 </v>
   <v>       0.00000000       0.00000000       0.00000000 </v>
   <v>       0.00000000       0.00000000       0.00000000 </v>
   <v>       0.00000000       0.00000000       0.00000000 </v>
   <v>       0.00000000       0.00000000       0.00000000 </v>
   <v>       0.00000000       0.00000000       0.00000000 </v>
   <v>       0.00000000       0.00000000       0.00000000 </v>
   <v>       0.00000000       0.00000000       0.00000000 </v>
   <v>       0.00000000       0.00000000       0.00000000 </v>
   <v>       0.00000000       0.00000000       0.00000000 </v>
   <v>       0.00000000       0.00000000       0.00000000 </v>
   <v>       0.00000000       0.00000000       0.00000000 </v>
   <v>       0.00000000       0.00000000       0.00000000 </v>
   <v>       0.00000000       0.00000000       0.00000000 </v>
   <v>       0.00000000       0.00000000       0.00000000 </v>
   <v>       0.00000000       0.00000000       0.00000000 </v>
   <v>       0.00000000       0.00000000       0.00000000 </v>
   <v>       0.00000000       0.00000000       0.00000000 </v>
   <v>       0.00000000       0.00000000       0.00000000 </v>
   <v>       0.00000000       0.00000000       0.00000000 </v>
   <v>       0.00000000       0.00000000       0.00000000 </v>
   <v>       0.00000000       0.00000000       0.00000000 </v>
   <v>       0.00000000       0.00000000       0.00000000 </v>
   <v>       0.00000000       0.00000000       0.00000000 </v>
   <v>       0.00000000       0.00000000       0.00000000 </v>
   <v>       0.00000000       0.00000000       0.00000000 </v>
   <v>       0.00000000       0.00000000       0.00000000 </v>
   <v>       0.00000000       0.00000000       0.00000000 </v>
   <v>       0.00000000       0.00000000       0.00000000 </v>
   <v>       0.00000000       0.00000000       0.00000000 </v>
   <v>       0.00000000       0.00000000       0.00000000 </v>
   <v>       0.00000000       0.00000000       0.00000000 </v>
   <v>       0.00000000       0.00000000       0.00000000 </v>
   <v>       0.00000000       0.00000000       0.00000000 </v>
   <v>       0.00000000       0.00000000       0.00000000 </v>
   <v>       0.00000000       0.00000000       0.00000000 </v>
   <v>       0.00000000       0.00000000       0.00000000 </v>
   <v>       0.00000000       0.00000000       0.00000000 </v>
   <v>       0.00000000       0.00000000       0.00000000 </v>
   <v>       0.00000000       0.00000000       0.00000000 </v>
   <v>       0.00000000       0.00000000       0.00000000 </v>
   <v>       0.00000000       0.00000000       0.00000000 </v>
   <v>       0.00000000       0.00000000       0.00000000 </v>
   <v>       0.00000000       0.00000000       0.00000000 </v>
   <v>       0.00000000       0.00000000       0.00000000 </v>
   <v>       0.00000000       0.00000000       0.00000000 </v>
   <v>       0.00000000       0.00000000       0.00000000 </v>
   <v>       0.00000000       0.00000000       0.00000000 </v>
   <v>       0.00000000       0.00000000       0.00000000 </v>
   <v>       0.00000000       0.00000000       0.00000000 </v>
   <v>       0.00000000       0.00000000       0.00000000 </v>
   <v>       0.00000000       0.00000000       0.00000000 </v>
   <v>       0.00000000       0.00000000       0.00000000 </v>
   <v>       0.00000000       0.00000000       0.00000000 </v>
   <v>       0.00000000       0.00000000       0.00000000 </v>
   <v>       0.00000000       0.00000000       0.00000000 </v>
   <v>       0.00000000       0.00000000       0.00000000 </v>
   <v>       0.00000000       0.00000000       0.00000000 </v>
   <v>       0.00000000       0.00000000       0.00000000 </v>
   <v>       0.00000000       0.00000000       0.00000000 </v>
   <v>       0.00000000       0.00000000       0.00000000 </v>
   <v>       0.00000000       0.00000000       0.00000000 </v>
   <v>       0.00000000       0.00000000       0.00000000 </v>
   <v>       0.00000000       0.00000000       0.00000000 </v>
   <v>       0.00000000       0.00000000       0.00000000 </v>
   <v>       0.00000000       0.00000000       0.00000000 </v>
   <v>       0.00000000       0.00000000       0.00000000 </v>
   <v>       0.00000000       0.00000000       0.00000000 </v>
   <v>       0.00000000       0.00000000       0.00000000 </v>
   <v>       0.00000000       0.00000000       0.00000000 </v>
   <v>       0.00000000       0.00000000       0.00000000 </v>
   <v>       0.00000000       0.00000000       0.00000000 </v>
   <v>       0.00000000       0.00000000       0.00000000 </v>
   <v>       0.00000000       0.00000000       0.00000000 </v>
   <v>       0.00000000       0.00000000       0.00000000 </v>
   <v>       0.00000000       0.00000000       0.00000000 </v>
   <v>       0.00000000       0.00000000       0.00000000 </v>
   <v>       0.00000000       0.00000000       0.00000000 </v>
   <v>       0.00000000       0.00000000       0.00000000 </v>
   <v>       0.00000000       0.00000000       0.00000000 </v>
   <v>       0.00000000       0.00000000       0.00000000 </v>
   <v>       0.00000000       0.00000000       0.00000000 </v>
   <v>       0.00000000       0.00000000       0.00000000 </v>
   <v>       0.00000000       0.00000000       0.00000000 </v>
   <v>       0.00000000       0.00000000       0.00000000 </v>
   <v>       0.00000000       0.00000000       0.00000000 </v>
   <v>       0.00000000       0.00000000       0.00000000 </v>
   <v>       0.00000000       0.00000000       0.00000000 </v>
   <v>       0.00000000       0.00000000       0.00000000 </v>
   <v>       0.00000000       0.00000000       0.00000000 </v>
   <v>       0.00000000       0.00000000       0.00000000 </v>
   <v>       0.00000000       0.00000000       0.00000000 </v>
   <v>       0.00000000       0.00000000       0.00000000 </v>
   <v>       0.00000000       0.00000000       0.00000000 </v>
   <v>       0.00000000       0.00000000       0.00000000 </v>
   <v>       0.00000000       0.00000000       0.00000000 </v>
   <v>       0.00000000       0.00000000       0.00000000 </v>
   <v>       0.00000000       0.00000000       0.00000000 </v>
   <v>       0.00000000       0.00000000       0.00000000 </v>
   <v>       0.00000000       0.00000000       0.00000000 </v>
   <v>       0.00000000       0.00000000       0.00000000 </v>
   <v>       0.00000000       0.00000000       0.00000000 </v>
   <v>       0.00000000       0.00000000       0.00000000 </v>
   <v>       0.00000000       0.00000000       0.00000000 </v>
   <v>       0.00000000       0.00000000       0.00000000 </v>
   <v>       0.00000000       0.00000000       0.00000000 </v>
   <v>       0.00000000       0.00000000       0.00000000 </v>
   <v>       0.00000000       0.00000000       0.00000000 </v>
   <v>       0.00000000       0.00000000       0.00000000 </v>
   <v>       0.00000000       0.00000000       0.00000000 </v>
   <v>       0.00000000       0.00000000       0.00000000 </v>
   <v>       0.00000000       0.00000000       0.00000000 </v>
   <v>       0.00000000       0.00000000       0.00000000 </v>
   <v>       0.00000000       0.00000000       0.00000000 </v>
   <v>       0.00000000       0.00000000       0.00000000 </v>
  </varray>
 </structure>
 <calculation>
  <scstep>
   <time name="dav">   25.27   25.28</time>
   <time name="total">   25.65   25.66</time>
   <energy>
    <i name="alphaZ">   4052.29761577 </i>
    <i name="ewald"> -56165.12537176 </i>
    <i name="hartreedc"> -12159.87741298 </i>
    <i name="XCdc">   3272.00877770 </i>
    <i name="pawpsdc">  50594.51003143 </i>
    <i name="pawaedc"> -49994.65612350 </i>
    <i name="eentropy">     -0.02871496 </i>
    <i name="bandstr">   5791.52797946 </i>
    <i name="atom">  64968.54023382 </i>
    <i name="e_fr_energy">  10359.19701499 </i>
    <i name="e_wo_entrp">  10359.22572995 </i>
    <i name="e_0_energy">  10359.21137247 </i>
   </energy>
  </scstep>
  <scstep>
   <time name="dav">   27.79   27.81</time>
   <time name="total">   27.79   27.81</time>
   <energy>
    <i name="e_fr_energy">    236.96046097 </i>
    <i name="e_wo_entrp">    236.96046097 </i>
    <i name="e_0_energy">    236.96046097 </i>
   </energy>
  </scstep>
  <scstep>
   <time name="dav">   35.22   35.24</time>
   <time name="total">   35.22   35.24</time>
   <energy>
    <i name="e_fr_energy">   -926.00212990 </i>
    <i name="e_wo_entrp">   -926.00212990 </i>
    <i name="e_0_energy">   -926.00212990 </i>
   </energy>
  </scstep>
  <scstep>
   <time name="dav">   39.72   39.73</time>
   <time name="total">   39.72   39.73</time>
   <energy>
    <i name="e_fr_energy">   -987.55902127 </i>
    <i name="e_wo_entrp">   -987.55902127 </i>
    <i name="e_0_energy">   -987.55902127 </i>
   </energy>
  </scstep>
  <scstep>
   <time name="dav">   40.00   40.01</time>
   <time name="total">   40.82   40.84</time>
   <energy>
    <i name="e_fr_energy">   -991.90217790 </i>
    <i name="e_wo_entrp">   -991.90217790 </i>
    <i name="e_0_energy">   -991.90217790 </i>
   </energy>
  </scstep>
  <scstep>
   <time name="dav">   29.04   29.04</time>
   <time name="total">   30.24   30.25</time>
   <energy>
    <i name="e_fr_energy">   -853.16000706 </i>
    <i name="e_wo_entrp">   -853.16000706 </i>
    <i name="e_0_energy">   -853.16000706 </i>
   </energy>
  </scstep>
  <scstep>
   <time name="dav">   34.61   34.61</time>
   <time name="total">   35.86   35.89</time>
   <energy>
    <i name="e_fr_energy">   -854.40737010 </i>
    <i name="e_wo_entrp">   -854.40650306 </i>
    <i name="e_0_energy">   -854.40693658 </i>
   </energy>
  </scstep>
  <scstep>
   <time name="dav">   36.56   36.56</time>
   <time name="total">   37.80   37.81</time>
   <energy>
    <i name="e_fr_energy">   -857.00488097 </i>
    <i name="e_wo_entrp">   -857.00488097 </i>
    <i name="e_0_energy">   -857.00488097 </i>
   </energy>
  </scstep>
  <scstep>
   <time name="dav">   37.60   37.60</time>
   <time name="total">   38.80   38.82</time>
   <energy>
    <i name="e_fr_energy">   -854.89712634 </i>
    <i name="e_wo_entrp">   -854.89712634 </i>
    <i name="e_0_energy">   -854.89712634 </i>
   </energy>
  </scstep>
  <scstep>
   <time name="dav">   30.61   30.61</time>
   <time name="total">   31.79   31.81</time>
   <energy>
    <i name="e_fr_energy">   -853.45493423 </i>
    <i name="e_wo_entrp">   -853.45493423 </i>
    <i name="e_0_energy">   -853.45493423 </i>
   </energy>
  </scstep>
  <scstep>
   <time name="dav">   28.89   28.89</time>
   <time name="total">   30.13   30.15</time>
   <energy>
    <i name="e_fr_energy">   -853.23015607 </i>
    <i name="e_wo_entrp">   -853.23015545 </i>
    <i name="e_0_energy">   -853.23015576 </i>
   </energy>
  </scstep>
  <scstep>
   <time name="dav">   36.16   36.16</time>
   <time name="total">   37.37   37.38</time>
   <energy>
    <i name="e_fr_energy">   -853.34580135 </i>
    <i name="e_wo_entrp">   -853.34076363 </i>
    <i name="e_0_energy">   -853.34328249 </i>
   </energy>
  </scstep>
  <scstep>
   <time name="dav">   33.09   33.09</time>
   <time name="total">   34.60   34.61</time>
   <energy>
    <i name="e_fr_energy">   -853.42467597 </i>
    <i name="e_wo_entrp">   -853.42467597 </i>
    <i name="e_0_energy">   -853.42467597 </i>
   </energy>
  </scstep>
  <scstep>
   <time name="dav">   28.93   28.93</time>
   <time name="total">   30.13   30.14</time>
   <energy>
    <i name="e_fr_energy">   -853.46963244 </i>
    <i name="e_wo_entrp">   -853.46963244 </i>
    <i name="e_0_energy">   -853.46963244 </i>
   </energy>
  </scstep>
  <scstep>
   <time name="dav">   33.59   33.60</time>
   <time name="total">   34.84   34.87</time>
   <energy>
    <i name="e_fr_energy">   -853.32618784 </i>
    <i name="e_wo_entrp">   -853.32618783 </i>
    <i name="e_0_energy">   -853.32618783 </i>
   </energy>
  </scstep>
  <scstep>
   <time name="dav">   35.66   35.67</time>
   <time name="total">   36.88   36.89</time>
   <energy>
    <i name="e_fr_energy">   -853.20126834 </i>
    <i name="e_wo_entrp">   -853.20126447 </i>
    <i name="e_0_energy">   -853.20126640 </i>
   </energy>
  </scstep>
  <scstep>
   <time name="dav">   33.31   33.31</time>
   <time name="total">   34.52   34.54</time>
   <energy>
    <i name="e_fr_energy">   -853.17089671 </i>
    <i name="e_wo_entrp">   -853.17087472 </i>
    <i name="e_0_energy">   -853.17088572 </i>
   </energy>
  </scstep>
  <scstep>
   <time name="dav">   39.15   39.15</time>
   <time name="total">   40.38   40.39</time>
   <energy>
    <i name="e_fr_energy">   -853.14913674 </i>
    <i name="e_wo_entrp">   -853.14905233 </i>
    <i name="e_0_energy">   -853.14909454 </i>
   </energy>
  </scstep>
  <scstep>
   <time name="dav">   35.96   35.96</time>
   <time name="total">   37.19   37.22</time>
   <energy>
    <i name="e_fr_energy">   -853.12295031 </i>
    <i name="e_wo_entrp">   -853.12218199 </i>
    <i name="e_0_energy">   -853.12256615 </i>
   </energy>
  </scstep>
  <scstep>
   <time name="dav">   39.18   39.18</time>
   <time name="total">   40.38   40.39</time>
   <energy>
    <i name="e_fr_energy">   -853.09248154 </i>
    <i name="e_wo_entrp">   -853.06074574 </i>
    <i name="e_0_energy">   -853.07661364 </i>
   </energy>
  </scstep>
  <scstep>
   <time name="dav">   35.98   35.98</time>
   <time name="total">   37.38   37.40</time>
   <energy>
    <i name="e_fr_energy">   -853.10919118 </i>
    <i name="e_wo_entrp">   -853.10596834 </i>
    <i name="e_0_energy">   -853.10757976 </i>
   </energy>
  </scstep>
  <scstep>
   <time name="dav">   30.32   30.33</time>
   <time name="total">   31.52   31.53</time>
   <energy>
    <i name="e_fr_energy">   -853.11017322 </i>
    <i name="e_wo_entrp">   -853.06125769 </i>
    <i name="e_0_energy">   -853.08571545 </i>
   </energy>
  </scstep>
  <scstep>
   <time name="dav">   33.68   33.68</time>
   <time name="total">   34.88   34.90</time>
   <energy>
    <i name="e_fr_energy">   -853.09305247 </i>
    <i name="e_wo_entrp">   -853.06034621 </i>
    <i name="e_0_energy">   -853.07669934 </i>
   </energy>
  </scstep>
  <scstep>
   <time name="dav">   33.72   33.72</time>
   <time name="total">   34.91   34.92</time>
   <energy>
    <i name="e_fr_energy">   -853.09278726 </i>
    <i name="e_wo_entrp">   -853.06962652 </i>
    <i name="e_0_energy">   -853.08120689 </i>
   </energy>
  </scstep>
  <scstep>
   <time name="dav">   29.05   29.05</time>
   <time name="total">   30.27   30.29</time>
   <energy>
    <i name="e_fr_energy">   -853.09267240 </i>
    <i name="e_wo_entrp">   -853.06698335 </i>
    <i name="e_0_energy">   -853.07982788 </i>
   </energy>
  </scstep>
  <scstep>
   <time name="dav">   34.81   34.81</time>
   <time name="total">   36.01   36.02</time>
   <energy>
    <i name="e_fr_energy">   -853.09276697 </i>
    <i name="e_wo_entrp">   -853.06388650 </i>
    <i name="e_0_energy">   -853.07832674 </i>
   </energy>
  </scstep>
  <scstep>
   <time name="dav">   33.73   33.73</time>
   <time name="total">   34.93   34.95</time>
   <energy>
    <i name="e_fr_energy">   -853.09266249 </i>
    <i name="e_wo_entrp">   -853.06708190 </i>
    <i name="e_0_energy">   -853.07987219 </i>
   </energy>
  </scstep>
  <scstep>
   <time name="dav">   32.16   32.16</time>
   <time name="total">   33.40   33.42</time>
   <energy>
    <i name="e_fr_energy">   -853.09265164 </i>
    <i name="e_wo_entrp">   -853.06620221 </i>
    <i name="e_0_energy">   -853.07942692 </i>
   </energy>
  </scstep>
  <scstep>
   <time name="dav">   27.52   27.52</time>
   <time name="total">   29.69   29.71</time>
   <energy>
    <i name="e_fr_energy">   -853.09271346 </i>
    <i name="e_wo_entrp">   -853.06811232 </i>
    <i name="e_0_energy">   -853.08041289 </i>
   </energy>
  </scstep>
  <scstep>
   <time name="dav">   23.86   23.87</time>
   <time name="total">   25.07   25.07</time>
   <energy>
    <i name="e_fr_energy">   -853.09266365 </i>
    <i name="e_wo_entrp">   -853.06708266 </i>
    <i name="e_0_energy">   -853.07987315 </i>
   </energy>
  </scstep>
  <scstep>
   <time name="dav">   24.00   24.00</time>
   <time name="total">   25.19   25.21</time>
   <energy>
    <i name="e_fr_energy">   -853.09265210 </i>
    <i name="e_wo_entrp">   -853.06600746 </i>
    <i name="e_0_energy">   -853.07932978 </i>
   </energy>
  </scstep>
  <scstep>
   <time name="dav">   20.63   20.64</time>
   <time name="total">   21.01   21.02</time>
   <energy>
    <i name="alphaZ">   4052.29761577 </i>
    <i name="ewald"> -56165.12537176 </i>
    <i name="hartreedc"> -13456.91675212 </i>
    <i name="XCdc">   3363.45784406 </i>
    <i name="pawpsdc"> 103389.30587624 </i>
    <i name="pawaedc">-103033.44662964 </i>
    <i name="eentropy">     -0.02630538 </i>
    <i name="bandstr">  -3971.17916312 </i>
    <i name="atom">  64968.54023382 </i>
    <i name="e_fr_energy">   -853.09265211 </i>
    <i name="e_wo_entrp">   -853.06634673 </i>
    <i name="e_0_energy">   -853.07949942 </i>
   </energy>
  </scstep>
  <structure>
   <crystal>
    <varray name="basis" >
     <v>      10.56489661       0.00000000       0.00000000 </v>
     <v>       0.00000000      10.56489661       0.00000000 </v>
     <v>       0.00000000       0.00000000      10.56489661 </v>
    </varray>
    <i name="volume">   1179.22249153 </i>
    <varray name="rec_basis" >
     <v>       0.09465308       0.00000000       0.00000000 </v>
     <v>       0.00000000       0.09465308       0.00000000 </v>
     <v>       0.00000000       0.00000000       0.09465308 </v>
    </varray>
   </crystal>
   <varray name="positions" >
    <v>       0.15249267       0.91991024       0.08479329 </v>
    <v>       0.04190709       0.04600762       0.45980139 </v>
    <v>       0.16516982       0.31299349       0.75439935 </v>
    <v>       0.43503703       0.72067265       0.15111032 </v>
    <v>       0.26776904       0.84849486       0.59385239 </v>
    <v>       0.38958484       0.08923045       0.84869991 </v>
    <v>       0.74898389       0.10997102       0.14773031 </v>
    <v>       0.17528736       0.61463738       0.36725102 </v>
    <v>       0.92870228       0.80855872       0.26548609 </v>
    <v>       0.82712090       0.64307240       0.08703962 </v>
    <v>       0.40293659       0.38815055       0.49640409 </v>
    <v>       0.06894079       0.72008404       0.86906636 </v>
    <v>       0.77630725       0.95165368       0.66917019 </v>
    <v>       0.57275101       0.85575031       0.94571883 </v>
    <v>       0.67951065       0.73814782       0.54288495 </v>
    <v>       0.07088460       0.39897413       0.16445351 </v>
    <v>       0.93550922       0.19738431       0.93414041 </v>
    <v>       0.59252827       0.15510960       0.58964666 </v>
    <v>       0.52193921       0.61680165       0.76957841 </v>
    <v>       0.28483387       0.48365595       0.95942526 </v>
    <v>       0.42763754       0.65687962       0.46350001 </v>
    <v>       0.70511978       0.44315044       0.87152117 </v>
    <v>       0.48912935       0.94045834       0.37790833 </v>
    <v>       0.59855401       0.49329481       0.32936064 </v>
    <v>       0.81088365       0.27793526       0.38741679 </v>
    <v>       0.47663064       0.02823689       0.05242313 </v>
    <v>       0.27194209       0.13870946       0.28455827 </v>
    <v>       0.90282497       0.55459296       0.39806753 </v>
    <v>       0.32034243       0.42537445       0.23935146 </v>
    <v>       0.53055998       0.87211900       0.67584398 </v>
    <v>       0.56912750       0.19463931       0.33860306 </v>
    <v>       0.97793404       0.79397500       0.54664018 </v>
    <v>       0.19862775       0.88185358       0.32309476 </v>
    <v>       0.86004610       0.89951116       0.97191477 </v>
    <v>       0.64960747       0.79256046       0.22558301 </v>
    <v>       0.82127248       0.70325982       0.77839506 </v>
    <v>       0.87392062       0.21485806       0.68686414 </v>
    <v>       0.09869810       0.02025032       0.76041424 </v>
    <v>       0.15931314       0.21313160       0.97949806 </v>
    <v>       0.78896471       0.00411375       0.42425169 </v>
    <v>       0.23157809       0.54217317       0.69898801 </v>
    <v>       0.68096969       0.13508493       0.88870080 </v>
    <v>       0.00420592       0.15417795       0.19664048 </v>
    <v>       0.29941124       0.81471609       0.86798170 </v>
    <v>       0.48240016       0.29718125       0.12063567 </v>
    <v>       0.96427981       0.45968340       0.90704891 </v>
    <v>       0.11010025       0.65836117       0.12684446 </v>
    <v>       0.95548962       0.53504139       0.61504735 </v>
    <v>       0.78369919       0.36531186       0.11147751 </v>
    <v>       0.12377321       0.36966310       0.47687625 </v>
    <v>       0.59442707       0.58000029       0.00111435 </v>
    <v>       0.28781336       0.12570033       0.56999912 </v>
    <v>       0.68219309       0.44838178       0.58360447 </v>
    <v>       0.45863795       0.34507088       0.80175072 </v>
    <v>       0.55390560       0.23212271       0.84661131 </v>
    <v>       0.59639100       0.29885679       0.43942988 </v>
    <v>       0.61515632       0.16213017       0.00977586 </v>
    <v>       0.73576802       0.54115962       0.70157797 </v>
    <v>       0.38558058       0.19664554       0.10468494 </v>
    <v>       0.01041756       0.55311073       0.24852086 </v>
    <v>       0.57540868       0.67875927       0.32004782 </v>
    <v>       0.65549580       0.79419853       0.75020887 </v>
    <v>       0.35100066       0.81641065       0.37716309 </v>
    <v>       0.32026365       0.27470763       0.88232939 </v>
    <v>       0.85370743       0.88771989       0.47887277 </v>
    <v>       0.98434998       0.64372391       0.48051002 </v>
    <v>       0.91305850       0.25976934       0.14362598 </v>
    <v>       0.16278101       0.06347191       0.63577624 </v>
    <v>       0.85085609       0.82693917       0.83771699 </v>
    <v>       0.40330502       0.29820199       0.27701218 </v>
    <v>       0.14736919       0.14290213       0.10600853 </v>
    <v>       0.80520792       0.33414257       0.58975131 </v>
    <v>       0.23488922       0.70062522       0.78092028 </v>
    <v>       0.47934535       0.40572984       0.93307690 </v>
    <v>       0.28344805       0.98983413       0.43222480 </v>
    <v>       0.73646848       0.18763235       0.75848658 </v>
    <v>       0.61481444       0.94061774       0.55458995 </v>
    <v>       0.50213972       0.43655776       0.17064885 </v>
    <v>       0.24362032       0.94547029       0.77763179 </v>
    <v>       0.54946011       0.85581717       0.15255949 </v>
    <v>       0.69062453       0.11567635       0.37010946 </v>
    <v>       0.23209605       0.57391317       0.17336689 </v>
    <v>       0.31410373       0.90605912       0.21604541 </v>
    <v>       0.90808073       0.37500942       0.78669353 </v>
    <v>       0.99472771       0.67309780       0.69346316 </v>
    <v>       0.64760601       0.44918076       0.05425027 </v>
    <v>       0.90947163       0.11049389       0.31303887 </v>
    <v>       0.62685282       0.26437804       0.20694387 </v>
    <v>       0.38551392       0.51754493       0.34059937 </v>
    <v>       0.07692666       0.23660791       0.32740467 </v>
    <v>       0.81588767       0.68974109       0.32803057 </v>
    <v>       0.77915914       0.40703714       0.26723366 </v>
    <v>       0.88589926       0.56896383       0.87188070 </v>
    <v>       0.95008061       0.03032437       0.11893690 </v>
    <v>       0.13932410       0.77120323       0.23857744 </v>
    <v>       0.22879210       0.34753859       0.10312844 </v>
    <v>       0.94477169       0.09798426       0.73492751 </v>
    <v>       0.80030405       0.05569945       0.93699667 </v>
    <v>       0.79464441       0.28737249       0.92809504 </v>
    <v>       0.04496634       0.56091323       0.01486410 </v>
    <v>       0.84521164       0.11494577       0.52212443 </v>
    <v>       0.50196068       0.77151174       0.58683236 </v>
    <v>       0.32185717       0.42331853       0.73215144 </v>
    <v>       0.43090628       0.80076799       0.78091177 </v>
    <v>       0.08821187       0.98789231       0.28167766 </v>
    <v>       0.13612909       0.13310557       0.85511023 </v>
    <v>       0.08149934       0.82930124       0.44991034 </v>
    <v>       0.25473518       0.62770463       0.58388626 </v>
    <v>       0.78218190       0.52507577       0.47766257 </v>
    <v>       0.74582760       0.85064098       0.05319466 </v>
    <v>       0.89592128       0.42519746       0.04364244 </v>
    <v>       0.10292083       0.47414793       0.61309612 </v>
    <v>       0.01498058       0.89967035       0.65073381 </v>
    <v>       0.66408833       0.67314462       0.90956385 </v>
    <v>       0.69573337       0.93158935       0.30052174 </v>
    <v>       0.58701779       0.55396392       0.51767922 </v>
    <v>       0.98326407       0.43570830       0.45346685 </v>
    <v>       0.08500757       0.33597732       0.95621878 </v>
    <v>       0.41750246       0.98536263       0.65909774 </v>
    <v>       0.43248134       0.63312161       0.94823865 </v>
    <v>       0.59091352       0.02017698       0.83960907 </v>
    <v>       0.53351127       0.38708495       0.67909775 </v>
    <v>       0.22476619       0.72937084       0.99341877 </v>
    <v>       0.45269103       0.15280439       0.45329060 </v>
    <v>       0.00534658       0.25318448       0.56426082 </v>
    <v>       0.36673324       0.21232426       0.66294133 </v>
    <v>       0.12507588       0.49053388       0.80816771 </v>
    <v>       0.34535502       0.88731221       0.99024081 </v>
    <v>       0.25034044       0.23177634       0.46488379 </v>
    <v>       0.95171135       0.78909490       0.06186004 </v>
    <v>       0.84059917       0.74689432       0.61748450 </v>
    <v>       0.51185830       0.08593838       0.23637454 </v>
    <v>       0.64187211       0.63907669       0.12681969 </v>
    <v>       0.03801264       0.95285247       0.90326115 </v>
    <v>       0.21855307       0.40287100       0.34291471 </v>
   </varray>
  </structure>
  <varray name="forces" >
   <v>      -0.82743767       1.66027159      -1.72007158 </v>
   <v>      -0.22462883       3.01497058       2.26017956 </v>
   <v>      -2.23749143      -4.37663988      -3.08634143 </v>
   <v>      -7.80638444      -3.83382191       1.09819622 </v>
   <v>       0.06498070      -0.33988581       0.11338709 </v>
   <v>      -0.61279982       0.14578508      -2.79766655 </v>
   <v>       0.12725737      -3.57337625       1.60947044 </v>
   <v>       1.37900375       0.22975434       2.50704828 </v>
   <v>       3.02800604       6.54783747      -0.42907614 </v>
   <v>       2.10988446      -2.86450033      -0.29864806 </v>
   <v>       0.42940058      -2.96786613       0.88322131 </v>
   <v>      -3.14664898       0.94282603       1.24331271 </v>
   <v>       3.25812279       1.87519838       3.25484906 </v>
   <v>       0.06993183      -2.52517713      -1.70343156 </v>
   <v>      -0.36694957      -2.76683797      -6.48813658 </v>
   <v>      -3.29365426      -1.35083685       1.67188158 </v>
   <v>       4.26009194      -5.49596435       0.54674101 </v>
   <v>      -0.64503455       0.07788106       2.64433875 </v>
   <v>      -1.10985808       0.20417149      -3.84751778 </v>
   <v>      -0.79186304       0.82179515       0.97900275 </v>
   <v>      -1.48380386       0.16360228      -0.73463418 </v>
   <v>       1.03008591      -4.24869462      -4.86762097 </v>
   <v>       0.39504750       2.30074567       0.26645857 </v>
   <v>       2.28637759      -1.96254836      -1.81001292 </v>
   <v>       3.60387258      -1.93518474       3.68662002 </v>
   <v>      -1.01821707       1.17739462       4.81982986 </v>
   <v>       1.34898948      -0.19281067      -1.20686711 </v>
   <v>      -3.04230895       0.08825115     -10.28542650 </v>
   <v>       2.73026284      -0.43957195      -4.27888794 </v>
   <v>      -1.50359672       8.19530770       5.11783230 </v>
   <v>      -7.24670724      -2.81186507      -3.00467345 </v>
   <v>      -3.18690890      -0.27367972       4.75603518 </v>
   <v>       5.06624891       3.72153828       2.89078638 </v>
   <v>       6.28988959       5.28871094       1.31333923 </v>
   <v>       5.44632698      -4.29905340       4.96103111 </v>
   <v>      -2.95983407      -7.42467905      -5.37283191 </v>
   <v>      -0.72715463       5.25946053      -6.76435563 </v>
   <v>      -5.00931345      -5.71664052       2.85297951 </v>
   <v>       9.31219542       2.35165007       0.25690403 </v>
   <v>      -2.70251260       6.28146317      -5.08503415 </v>
   <v>      -3.62472452       3.01745038       3.27292124 </v>
   <v>      -0.91419097       2.59535199      -4.83719429 </v>
   <v>       1.70892155      -4.83694336       5.33684365 </v>
   <v>       0.34011985      -0.33758570      -1.29050754 </v>
   <v>       4.76092834       0.21033962       1.43826298 </v>
   <v>       8.29200310      -4.81328790       1.80479303 </v>
   <v>       1.11799197      -1.12678304      -2.91640471 </v>
   <v>       0.20197456      -0.68611746       1.31765412 </v>
   <v>      -3.95599170      -1.98878552       2.81101228 </v>
   <v>      -2.43942182      -7.98726882      -2.20474164 </v>
   <v>      -8.07275279      -0.33386753       2.94648044 </v>
   <v>       3.97069609      -2.72913101      -2.87238601 </v>
   <v>       0.95760379      -0.68545728       0.56432924 </v>
   <v>      -2.92079857      -6.81308652      -0.55970129 </v>
   <v>      -2.57830364       1.23745236      -4.68570846 </v>
   <v>       2.46866892       7.17773096       3.37652367 </v>
   <v>      -2.00592744       0.60552329       9.62429441 </v>
   <v>       0.20093406       2.28361194       0.03768973 </v>
   <v>      -3.77158172      -4.65944106      -5.65682169 </v>
   <v>      -2.41422859       5.39797327       2.12480975 </v>
   <v>       0.38628729       7.22930532       0.02131360 </v>
   <v>      -0.05313545       0.87101422      -1.72679176 </v>
   <v>      -4.01861097      -7.42882852       1.77347181 </v>
   <v>      -2.70952002      -0.76189378       1.70658824 </v>
   <v>       2.93716277      -2.79880568      -1.40328148 </v>
   <v>       2.28626455       1.98592720       2.41039439 </v>
   <v>      -2.14590375      -0.31955549      -0.29181842 </v>
   <v>       1.98065092       3.54238226      -4.69256480 </v>
   <v>       2.18183188       3.69022455       2.71566945 </v>
   <v>       0.39454027      -0.78135152       2.62323802 </v>
   <v>      -1.63431177      -1.90885618       1.35933888 </v>
   <v>      -3.31829804       1.16699938       1.10872565 </v>
   <v>       1.77779456      -1.95589438      -1.92597911 </v>
   <v>       1.20415348       5.38813991       2.60165186 </v>
   <v>      -2.94008246       3.21604906       3.17281970 </v>
   <v>       2.42686597      -0.72010277      -5.71811634 </v>
   <v>       2.78362723       2.42410795      -0.72125537 </v>
   <v>      -6.21566036       4.83365180      -2.76759535 </v>
   <v>      -1.43085514      -3.63717216       3.83764491 </v>
   <v>      -2.88652976       5.86551539      -3.01756706 </v>
   <v>       1.17354894      -1.09549691       1.92139884 </v>
   <v>       1.88720190      -1.15246662      -0.56463532 </v>
   <v>      -0.86384152       2.99160510      -2.94120900 </v>
   <v>       2.13116965      -1.06730759      -2.38800543 </v>
   <v>       1.95546163      -3.67827397       0.43864364 </v>
   <v>       6.76474159      -2.55215537      -0.41161157 </v>
   <v>      -4.19268253      -2.78790538       2.21991330 </v>
   <v>       1.03513309       1.74502714      -2.19348234 </v>
   <v>       0.79385676       2.88260364       0.25713282 </v>
   <v>      -0.48536167       0.15821910      -2.87662047 </v>
   <v>      -2.50048949      -3.95225121      -0.00669811 </v>
   <v>       1.52320365       5.40429456      -4.99193651 </v>
   <v>      -6.42448838      10.77611184      -2.78548399 </v>
   <v>      -1.49161139      -1.66356282      -3.32489545 </v>
   <v>      -2.80114948      -4.03442042      -2.85808053 </v>
   <v>       6.38809936       1.47703298       1.23683534 </v>
   <v>       2.98610649      -2.58127357       2.46746863 </v>
   <v>       1.72720769      -5.49001106       0.87655653 </v>
   <v>      -8.09838824       0.98994474       4.92732110 </v>
   <v>       2.73134512       2.33084092       1.46224279 </v>
   <v>      -2.12509342      -2.19644176       3.49111286 </v>
   <v>      -4.71804279      -6.16149091      -4.03530331 </v>
   <v>       2.78160203       4.20701228      -1.57885194 </v>
   <v>       0.32218835       0.56022287       2.54235479 </v>
   <v>       2.37920749      -1.45546230      -0.86559802 </v>
   <v>       1.68602189       2.49619055       1.45360842 </v>
   <v>       4.64793847       0.34063444      -3.29298966 </v>
   <v>       2.02253869       0.54675803      -4.76691885 </v>
[...]
       <r>     9.7556     8.9461   868.0000 </r>
       <r>     9.9279     0.0077   868.0013 </r>
       <r>    10.1002    11.9721   870.0640 </r>
       <r>    10.2725    11.2415   872.0009 </r>
       <r>    10.4448     9.9170   873.7096 </r>
       <r>    10.6171     1.6856   874.0000 </r>
       <r>    10.7894     6.7287   875.1594 </r>
       <r>    10.9617    16.4508   877.9938 </r>
       <r>    11.1340     0.1887   878.0263 </r>
       <r>    11.3063    11.2894   879.9714 </r>
       <r>    11.4786    12.8131   882.1791 </r>
       <r>    11.6509    16.3378   884.9940 </r>
       <r>    11.8232    13.4807   887.3167 </r>
       <r>    11.9955    18.5111   890.5061 </r>
       <r>    12.1678    27.3838   895.2242 </r>
       <r>    12.3401    32.8129   900.8778 </r>
       <r>    12.5124    30.1269   906.0686 </r>
       <r>    12.6847    44.7972   913.7870 </r>
       <r>    12.8570    34.3974   919.7136 </r>
       <r>    13.0293    43.5014   927.2087 </r>
       <r>    13.2016    45.4127   935.0332 </r>
       <r>    13.3739    47.4746   943.2129 </r>
       <r>    13.5462    56.2307   952.9013 </r>
       <r>    13.7185    53.7369   962.1600 </r>
       <r>    13.8908    56.2252   971.8474 </r>
       <r>    14.0631    57.5513   981.7633 </r>
       <r>    14.2354    61.4772   992.3557 </r>
       <r>    14.4076    62.0048  1003.0389 </r>
       <r>    14.5799    61.9212  1013.7077 </r>
       <r>    14.7522    69.7161  1025.7196 </r>
       <r>    14.9245    65.1374  1036.9426 </r>
       <r>    15.0968    17.7428  1039.9996 </r>
       <r>    15.2691     0.0023  1040.0000 </r>
       <r>    15.4414     0.0000  1040.0000 </r>
       <r>    15.6137     0.0000  1040.0000 </r>
       <r>    15.7860     0.0000  1040.0000 </r>
       <r>    15.9583     0.0000  1040.0000 </r>
       <r>    16.1306     0.0000  1040.0000 </r>
       <r>    16.3029     0.0000  1040.0000 </r>
       <r>    16.4752     0.0000  1040.0000 </r>
       <r>    16.6475     0.0000  1040.0000 </r>
       <r>    16.8198     0.0000  1040.0000 </r>
       <r>    16.9921     0.0000  1040.0000 </r>
       <r>    17.1644     0.0000  1040.0000 </r>
       <r>    17.3367     0.0000  1040.0000 </r>
      </set>
     </set>
    </array>
   </total>
  </dos>
 </calculation>
 <structure name="finalpos" >
  <crystal>
   <varray name="basis" >
    <v>      10.56489661       0.00000000       0.00000000 </v>
    <v>       0.00000000      10.56489661       0.00000000 </v>
    <v>       0.00000000       0.00000000      10.56489661 </v>
   </varray>
   <i name="volume">   1179.22249153 </i>
   <varray name="rec_basis" >
    <v>       0.09465308       0.00000000       0.00000000 </v>
    <v>       0.00000000       0.09465308       0.00000000 </v>
    <v>       0.00000000       0.00000000       0.09465308 </v>
   </varray>
  </crystal>
  <varray name="positions" >
   <v>       0.15249267       0.91991024       0.08479329 </v>
   <v>       0.04190709       0.04600762       0.45980139 </v>
   <v>       0.16516982       0.31299349       0.75439935 </v>
   <v>       0.43503703       0.72067265       0.15111032 </v>
   <v>       0.26776904       0.84849486       0.59385239 </v>
   <v>       0.38958484       0.08923045       0.84869991 </v>
   <v>       0.74898389       0.10997102       0.14773031 </v>
   <v>       0.17528736       0.61463738       0.36725102 </v>
   <v>       0.92870228       0.80855872       0.26548609 </v>
   <v>       0.82712090       0.64307240       0.08703962 </v>
   <v>       0.40293659       0.38815055       0.49640409 </v>
   <v>       0.06894079       0.72008404       0.86906636 </v>
   <v>       0.77630725       0.95165368       0.66917019 </v>
   <v>       0.57275101       0.85575031       0.94571883 </v>
   <v>       0.67951065       0.73814782       0.54288495 </v>
   <v>       0.07088460       0.39897413       0.16445351 </v>
   <v>       0.93550922       0.19738431       0.93414041 </v>
   <v>       0.59252827       0.15510960       0.58964666 </v>
   <v>       0.52193921       0.61680165       0.76957841 </v>
   <v>       0.28483387       0.48365595       0.95942526 </v>
   <v>       0.42763754       0.65687962       0.46350001 </v>
   <v>       0.70511978       0.44315044       0.87152117 </v>
   <v>       0.48912935       0.94045834       0.37790833 </v>
   <v>       0.59855401       0.49329481       0.32936064 </v>
   <v>       0.81088365       0.27793526       0.38741679 </v>
   <v>       0.47663064       0.02823689       0.05242313 </v>
   <v>       0.27194209       0.13870946       0.28455827 </v>
   <v>       0.90282497       0.55459296       0.39806753 </v>
   <v>       0.32034243       0.42537445       0.23935146 </v>
   <v>       0.53055998       0.87211900       0.67584398 </v>
   <v>       0.56912750       0.19463931       0.33860306 </v>
   <v>       0.97793404       0.79397500       0.54664018 </v>
   <v>       0.19862775       0.88185358       0.32309476 </v>
   <v>       0.86004610       0.89951116       0.97191477 </v>
   <v>       0.64960747       0.79256046       0.22558301 </v>
   <v>       0.82127248       0.70325982       0.77839506 </v>
   <v>       0.87392062       0.21485806       0.68686414 </v>
   <v>       0.09869810       0.02025032       0.76041424 </v>
   <v>       0.15931314       0.21313160       0.97949806 </v>
   <v>       0.78896471       0.00411375       0.42425169 </v>
   <v>       0.23157809       0.54217317       0.69898801 </v>
   <v>       0.68096969       0.13508493       0.88870080 </v>
   <v>       0.00420592       0.15417795       0.19664048 </v>
   <v>       0.29941124       0.81471609       0.86798170 </v>
   <v>       0.48240016       0.29718125       0.12063567 </v>
   <v>       0.96427981       0.45968340       0.90704891 </v>
   <v>       0.11010025       0.65836117       0.12684446 </v>
   <v>       0.95548962       0.53504139       0.61504735 </v>
   <v>       0.78369919       0.36531186       0.11147751 </v>
   <v>       0.12377321       0.36966310       0.47687625 </v>
   <v>       0.59442707       0.58000029       0.00111435 </v>
   <v>       0.28781336       0.12570033       0.56999912 </v>
   <v>       0.68219309       0.44838178       0.58360447 </v>
   <v>       0.45863795       0.34507088       0.80175072 </v>
   <v>       0.55390560       0.23212271       0.84661131 </v>
   <v>       0.59639100       0.29885679       0.43942988 </v>
   <v>       0.61515632       0.16213017       0.00977586 </v>
   <v>       0.73576802       0.54115962       0.70157797 </v>
   <v>       0.38558058       0.19664554       0.10468494 </v>
   <v>       0.01041756       0.55311073       0.24852086 </v>
   <v>       0.57540868       0.67875927       0.32004782 </v>
   <v>       0.65549580       0.79419853       0.75020887 </v>
   <v>       0.35100066       0.81641065       0.37716309 </v>
   <v>       0.32026365       0.27470763       0.88232939 </v>
   <v>       0.85370743       0.88771989       0.47887277 </v>
   <v>       0.98434998       0.64372391       0.48051002 </v>
   <v>       0.91305850       0.25976934       0.14362598 </v>
   <v>       0.16278101       0.06347191       0.63577624 </v>
   <v>       0.85085609       0.82693917       0.83771699 </v>
   <v>       0.40330502       0.29820199       0.27701218 </v>
   <v>       0.14736919       0.14290213       0.10600853 </v>
   <v>       0.80520792       0.33414257       0.58975131 </v>
   <v>       0.23488922       0.70062522       0.78092028 </v>
   <v>       0.47934535       0.40572984       0.93307690 </v>
   <v>       0.28344805       0.98983413       0.43222480 </v>
   <v>       0.73646848       0.18763235       0.75848658 </v>
   <v>       0.61481444       0.94061774       0.55458995 </v>
   <v>       0.50213972       0.43655776       0.17064885 </v>
   <v>       0.24362032       0.94547029       0.77763179 </v>
   <v>       0.54946011       0.85581717       0.15255949 </v>
   <v>       0.69062453       0.11567635       0.37010946 </v>
   <v>       0.23209605       0.57391317       0.17336689 </v>
   <v>       0.31410373       0.90605912       0.21604541 </v>
   <v>       0.90808073       0.37500942       0.78669353 </v>
   <v>       0.99472771       0.67309780       0.69346316 </v>
   <v>       0.64760601       0.44918076       0.05425027 </v>
   <v>       0.90947163       0.11049389       0.31303887 </v>
   <v>       0.62685282       0.26437804       0.20694387 </v>
   <v>       0.38551392       0.51754493       0.34059937 </v>
   <v>       0.07692666       0.23660791       0.32740467 </v>
   <v>       0.81588767       0.68974109       0.32803057 </v>
   <v>       0.77915914       0.40703714       0.26723366 </v>
   <v>       0.88589926       0.56896383       0.87188070 </v>
   <v>       0.95008061       0.03032437       0.11893690 </v>
   <v>       0.13932410       0.77120323       0.23857744 </v>
   <v>       0.22879210       0.34753859       0.10312844 </v>
   <v>       0.94477169       0.09798426       0.73492751 </v>
   <v>       0.80030405       0.05569945       0.93699667 </v>
   <v>       0.79464441       0.28737249       0.92809504 </v>
   <v>       0.04496634       0.56091323       0.01486410 </v>
   <v>       0.84521164       0.11494577       0.52212443 </v>
   <v>       0.50196068       0.77151174       0.58683236 </v>
   <v>       0.32185717       0.42331853       0.73215144 </v>
   <v>       0.43090628       0.80076799       0.78091177 </v>
   <v>       0.08821187       0.98789231       0.28167766 </v>
   <v>       0.13612909       0.13310557       0.85511023 </v>
   <v>       0.08149934       0.82930124       0.44991034 </v>
   <v>       0.25473518       0.62770463       0.58388626 </v>
   <v>       0.78218190       0.52507577       0.47766257 </v>
   <v>       0.74582760       0.85064098       0.05319466 </v>
   <v>       0.89592128       0.42519746       0.04364244 </v>
   <v>       0.10292083       0.47414793       0.61309612 </v>
   <v>       0.01498058       0.89967035       0.65073381 </v>
   <v>       0.66408833       0.67314462       0.90956385 </v>
   <v>       0.69573337       0.93158935       0.30052174 </v>
   <v>       0.58701779       0.55396392       0.51767922 </v>
   <v>       0.98326407       0.43570830       0.45346685 </v>
   <v>       0.08500757       0.33597732       0.95621878 </v>
   <v>       0.41750246       0.98536263       0.65909774 </v>
   <v>       0.43248134       0.63312161       0.94823865 </v>
   <v>       0.59091352       0.02017698       0.83960907 </v>
   <v>       0.53351127       0.38708495       0.67909775 </v>
   <v>       0.22476619       0.72937084       0.99341877 </v>
   <v>       0.45269103       0.15280439       0.45329060 </v>
   <v>       0.00534658       0.25318448       0.56426082 </v>
   <v>       0.36673324       0.21232426       0.66294133 </v>
   <v>       0.12507588       0.49053388       0.80816771 </v>
   <v>       0.34535502       0.88731221       0.99024081 </v>
   <v>       0.25034044       0.23177634       0.46488379 </v>
   <v>       0.95171135       0.78909490       0.06186004 </v>
   <v>       0.84059917       0.74689432       0.61748450 </v>
   <v>       0.51185830       0.08593838       0.23637454 </v>
   <v>       0.64187211       0.63907669       0.12681969 </v>
   <v>       0.03801264       0.95285247       0.90326115 </v>
   <v>       0.21855307       0.40287100       0.34291471 </v>
  </varray>
  <varray name="velocities" >
   <v>       0.00000000       0.00000000       0.00000000 </v>
   <v>       0.00000000       0.00000000       0.00000000 </v>
   <v>       0.00000000       0.00000000       0.00000000 </v>
   <v>       0.00000000       0.00000000       0.00000000 </v>
   <v>       0.00000000       0.00000000       0.00000000 </v>
   <v>       0.00000000       0.00000000       0.00000000 </v>
   <v>       0.00000000       0.00000000       0.00000000 </v>
   <v>       0.00000000       0.00000000       0.00000000 </v>
   <v>       0.00000000       0.00000000       0.00000000 </v>
   <v>       0.00000000       0.00000000       0.00000000 </v>
   <v>       0.00000000       0.00000000       0.00000000 </v>
   <v>       0.00000000       0.00000000       0.00000000 </v>
   <v>       0.00000000       0.00000000       0.00000000 </v>
   <v>       0.00000000       0.00000000       0.00000000 </v>
   <v>       0.00000000       0.00000000       0.00000000 </v>
   <v>       0.00000000       0.00000000       0.00000000 </v>
   <v>       0.00000000       0.00000000       0.00000000 </v>
   <v>       0.00000000       0.00000000       0.00000000 </v>
   <v>       0.00000000       0.00000000       0.00000000 </v>
   <v>       0.00000000       0.00000000       0.00000000 </v>
   <v>       0.00000000       0.00000000       0.00000000 </v>
   <v>       0.00000000       0.00000000       0.00000000 </v>
   <v>       0.00000000       0.00000000       0.00000000 </v>
   <v>       0.00000000       0.00000000       0.00000000 </v>
   <v>       0.00000000       0.00000000       0.00000000 </v>
   <v>       0.00000000       0.00000000       0.00000000 </v>
   <v>       0.00000000       0.00000000       0.00000000 </v>
   <v>       0.00000000       0.00000000       0.00000000 </v>
   <v>       0.00000000       0.00000000       0.00000000 </v>
   <v>       0.00000000       0.00000000       0.00000000 </v>
   <v>       0.00000000       0.00000000       0.00000000 </v>
   <v>       0.00000000       0.00000000       0.00000000 </v>
   <v>       0.00000000       0.00000000       0.00000000 </v>
   <v>       0.00000000       0.00000000       0.00000000 </v>
   <v>       0.00000000       0.00000000       0.00000000 </v>
   <v>       0.00000000       0.00000000       0.00000000 </v>
   <v>       0.00000000       0.00000000       0.00000000 </v>
   <v>       0.00000000       0.00000000       0.00000000 </v>
   <v>       0.00000000       0.00000000       0.00000000 </v>
   <v>       0.00000000       0.00000000       0.00000000 </v>
   <v>       0.00000000       0.00000000       0.00000000 </v>
   <v>       0.00000000       0.00000000       0.00000000 </v>
   <v>       0.00000000       0.00000000       0.00000000 </v>
   <v>       0.00000000       0.00000000       0.00000000 </v>
   <v>       0.00000000       0.00000000       0.00000000 </v>
   <v>       0.00000000       0.00000000       0.00000000 </v>
   <v>       0.00000000       0.00000000       0.00000000 </v>
   <v>       0.00000000       0.00000000       0.00000000 </v>
   <v>       0.00000000       0.00000000       0.00000000 </v>
   <v>       0.00000000       0.00000000       0.00000000 </v>
   <v>       0.00000000       0.00000000       0.00000000 </v>
   <v>       0.00000000       0.00000000       0.00000000 </v>
   <v>       0.00000000       0.00000000       0.00000000 </v>
   <v>       0.00000000       0.00000000       0.00000000 </v>
   <v>       0.00000000       0.00000000       0.00000000 </v>
   <v>       0.00000000       0.00000000       0.00000000 </v>
   <v>       0.00000000       0.00000000       0.00000000 </v>
   <v>       0.00000000       0.00000000       0.00000000 </v>
   <v>       0.00000000       0.00000000       0.00000000 </v>
   <v>       0.00000000       0.00000000       0.00000000 </v>
   <v>       0.00000000       0.00000000       0.00000000 </v>
   <v>       0.00000000       0.00000000       0.00000000 </v>
   <v>       0.00000000       0.00000000       0.00000000 </v>
   <v>       0.00000000       0.00000000       0.00000000 </v>
   <v>       0.00000000       0.00000000       0.00000000 </v>
   <v>       0.00000000       0.00000000       0.00000000 </v>
   <v>       0.00000000       0.00000000       0.00000000 </v>
   <v>       0.00000000       0.00000000       0.00000000 </v>
   <v>       0.00000000       0.00000000       0.00000000 </v>
   <v>       0.00000000       0.00000000       0.00000000 </v>
   <v>       0.00000000       0.00000000       0.00000000 </v>
   <v>       0.00000000       0.00000000       0.00000000 </v>
   <v>       0.00000000       0.00000000       0.00000000 </v>
   <v>       0.00000000       0.00000000       0.00000000 </v>
   <v>       0.00000000       0.00000000       0.00000000 </v>
   <v>       0.00000000       0.00000000       0.00000000 </v>
   <v>       0.00000000       0.00000000       0.00000000 </v>
   <v>       0.00000000       0.00000000       0.00000000 </v>
   <v>       0.00000000       0.00000000       0.00000000 </v>
   <v>       0.00000000       0.00000000       0.00000000 </v>
   <v>       0.00000000       0.00000000       0.00000000 </v>
   <v>       0.00000000       0.00000000       0.00000000 </v>
   <v>       0.00000000       0.00000000       0.00000000 </v>
   <v>       0.00000000       0.00000000       0.00000000 </v>
   <v>       0.00000000       0.00000000       0.00000000 </v>
   <v>       0.00000000       0.00000000       0.00000000 </v>
   <v>       0.00000000       0.00000000       0.00000000 </v>
   <v>       0.00000000       0.00000000       0.00000000 </v>
   <v>       0.00000000       0.00000000       0.00000000 </v>
   <v>       0.00000000       0.00000000       0.00000000 </v>
   <v>       0.00000000       0.00000000       0.00000000 </v>
   <v>       0.00000000       0.00000000       0.00000000 </v>
   <v>       0.00000000       0.00000000       0.00000000 </v>
   <v>       0.00000000       0.00000000       0.00000000 </v>
   <v>       0.00000000       0.00000000       0.00000000 </v>
   <v>       0.00000000       0.00000000       0.00000000 </v>
   <v>       0.00000000       0.00000000       0.00000000 </v>
   <v>       0.00000000       0.00000000       0.00000000 </v>
   <v>       0.00000000       0.00000000       0.00000000 </v>
   <v>       0.00000000       0.00000000       0.00000000 </v>
   <v>       0.00000000       0.00000000       0.00000000 </v>
   <v>       0.00000000       0.00000000       0.00000000 </v>
   <v>       0.00000000       0.00000000       0.00000000 </v>
   <v>       0.00000000       0.00000000       0.00000000 </v>
   <v>       0.00000000       0.00000000       0.00000000 </v>
   <v>       0.00000000       0.00000000       0.00000000 </v>
   <v>       0.00000000       0.00000000       0.00000000 </v>
   <v>       0.00000000       0.00000000       0.00000000 </v>
   <v>       0.00000000       0.00000000       0.00000000 </v>
   <v>       0.00000000       0.00000000       0.00000000 </v>
   <v>       0.00000000       0.00000000       0.00000000 </v>
   <v>       0.00000000       0.00000000       0.00000000 </v>
   <v>       0.00000000       0.00000000       0.00000000 </v>
   <v>       0.00000000       0.00000000       0.00000000 </v>
   <v>       0.00000000       0.00000000       0.00000000 </v>
   <v>       0.00000000       0.00000000       0.00000000 </v>
   <v>       0.00000000       0.00000000       0.00000000 </v>
   <v>       0.00000000       0.00000000       0.00000000 </v>
   <v>       0.00000000       0.00000000       0.00000000 </v>
   <v>       0.00000000       0.00000000       0.00000000 </v>
   <v>       0.00000000       0.00000000       0.00000000 </v>
   <v>       0.00000000       0.00000000       0.00000000 </v>
   <v>       0.00000000       0.00000000       0.00000000 </v>
   <v>       0.00000000       0.00000000       0.00000000 </v>
   <v>       0.00000000       0.00000000       0.00000000 </v>
   <v>       0.00000000       0.00000000       0.00000000 </v>
   <v>       0.00000000       0.00000000       0.00000000 </v>
   <v>       0.00000000       0.00000000       0.00000000 </v>
   <v>       0.00000000       0.00000000       0.00000000 </v>
   <v>       0.00000000       0.00000000       0.00000000 </v>
   <v>       0.00000000       0.00000000       0.00000000 </v>
   <v>       0.00000000       0.00000000       0.00000000 </v>
   <v>       0.00000000       0.00000000       0.00000000 </v>
   <v>       0.00000000       0.00000000       0.00000000 </v>
   <v>       0.00000000       0.00000000       0.00000000 </v>
  </varray>
 </structure>
</modeling>
