135
Time=99999.99999996 pbc="T T T" Lattice="9.94194835 0.00000000 0.00000000 0.00000000 9.94194835 0.00000000 0.00000000 0.00000000 9.94194835" energy=-730.90318710 virial="912.14871820 39.27654606 -48.70741796 39.27654606 834.81742599 45.36010617 -48.70741796 45.36010617 844.88179080" stress="0.98741243 0.03996859 -0.04956563 0.03996859 0.90871858 0.04615934 -0.04956563 0.04615934 0.91896028" Properties=species:S:1:pos:R:3
Ca 7.57891459 3.73408947 4.96512900
Ca 3.88397150 8.13253486 4.69804032
Ca 7.75258534 1.27088904 7.05686432
Ca 4.56395790 8.49466487 7.18721101
Ca 9.70549515 8.91857812 2.51955478
Ca 3.31404828 0.37079820 3.26803418
Ca 8.82000132 6.49376308 9.06856581
Ca 8.94153350 5.41870739 7.09913556
Ca 9.86579395 3.24549049 8.40165556
Ca 7.72626716 9.53228284 9.60536295
Ca 3.27623700 7.13447385 0.63330439
Ca 1.75497815 3.11392964 0.95637310
Ca 0.88379656 5.75484861 1.47033111
Ca 9.86659260 6.99746158 4.87624360
Ca 1.90107589 7.73541074 7.80932644
Ca 5.23470031 1.04738034 7.90687370
Ca 6.61433443 3.60527510 7.97421560
Ca 2.14094248 0.45041783 1.60139565
Ca 1.98607606 5.57218128 5.72298468
Ca 6.31790546 0.33735108 1.96047314
Ca 1.05149961 0.75985353 8.27114528
Ca 7.15676068 7.91927756 4.02700667
Ca 2.70683357 4.36950344 2.58038378
Ca 5.02218139 3.72245318 6.02067473
Ca 4.34826361 4.57763478 9.87741693
Ca 9.00660024 2.07673809 3.07266060
Ca 6.00170744 4.29996077 2.08736255
Si 4.39968624 5.44590606 3.99270737
Si 3.36071795 0.95215936 6.29052051
Si 9.54331944 1.18149139 0.87707012
Si 6.87154693 8.53121020 6.86897555
Si 5.34808759 8.84018165 9.66020820
Si 8.40212293 0.07426850 4.86305785
Si 8.56479049 4.35708523 0.80272272
Si 5.26337506 7.08118622 2.15922348
Si 1.63398128 2.42199396 4.00921960
Si 0.46580898 4.57854250 4.14586200
Si 5.80242153 0.94507795 4.84807633
Si 0.17321018 2.11432224 6.06709389
Si 9.57207794 8.62318571 7.03651857
Si 3.22122524 9.66205526 9.44809017
Si 4.60101467 2.08162422 0.55540694
Si 6.07711231 6.23905257 9.19477403
Si 1.80472045 5.07492767 9.23985135
Si 7.53586563 5.86179556 3.69064185
Si 2.18650946 7.28952056 3.31218808
Si 7.22042256 2.43208136 9.82682815
Si 0.53376035 8.12021405 0.18595155
Si 7.82392482 7.29011277 1.37840243
Si 4.70520732 2.65609971 2.96632445
Si 2.45548194 3.33876580 7.48818219
Si 6.45910301 6.10407306 6.50076010
Si 4.05533689 5.97969001 7.13600121
Si 1.41055207 9.35369281 4.99593807
O 2.99834944 6.10457594 4.07770765
O 4.37389261 4.08548844 3.87675496
O 9.63578671 8.89316751 8.48418646
O 9.11223170 5.04994872 3.43201279
O 0.88481471 1.06967126 3.19622961
O 7.54995181 8.80700831 1.47350762
O 6.29301542 2.11564688 5.69999662
O 3.50310741 2.15344087 7.18827728
O 7.09437870 5.52779939 8.28338755
O 6.76367028 1.57233283 8.77217233
O 4.98838763 6.59626871 0.36952047
O 2.84940065 1.42534613 0.02102171
O 1.02488394 6.02444660 3.67265999
O 8.70635377 8.37556782 5.70443019
O 0.08208204 9.45146748 0.79935637
O 1.15345765 6.79238358 9.48723783
O 0.05646690 7.09854824 7.50294920
O 8.53214723 1.74636172 5.08769515
O 7.57900992 7.22040376 7.31951683
O 7.71538274 0.23838557 3.60620923
O 3.18938821 4.20066270 6.56233391
O 5.44529107 7.24215894 3.80680518
O 6.43515062 1.92511572 1.06279106
O 4.72048233 5.76053100 5.86493717
O 5.61050452 8.44836615 1.38459471
O 8.50491204 6.86842397 2.78008224
O 2.45226047 5.34391203 0.71874539
O 2.02112127 8.95367667 3.43497077
O 8.96654783 7.89344227 0.50538402
O 8.83363833 1.66871744 9.05982208
O 1.99073257 3.78928540 4.76680014
O 1.65308905 1.46243242 5.60768778
O 2.93004187 2.35738634 3.25011888
O 0.02593752 4.92370081 5.63163915
O 7.88670481 9.54145276 7.55471854
O 4.52349864 2.74007048 8.92177666
O 8.94834839 3.29141307 6.74319925
O 6.16798795 2.39957112 3.31780799
O 3.61236020 9.24033821 0.93035484
O 3.14214331 7.13152105 6.64855763
O 4.25008115 1.65784694 4.89288826
O 6.65108037 6.35021181 2.02436008
O 9.92339326 3.11204811 4.70082344
O 0.84234489 1.49711038 0.40040471
O 5.19216424 9.59351945 3.92232869
O 7.54094314 3.88491355 2.64676154
O 1.94904151 7.68316527 4.79626235
O 0.23850894 4.50590155 0.36432515
O 0.66917311 3.73439581 2.66638206
O 7.84655694 5.84640435 5.31756276
O 3.84460663 3.21862144 1.41354196
O 6.06070654 9.02925840 8.22114125
O 2.69076308 9.88254948 5.12634524
O 2.35607831 3.61839591 8.99720383
O 1.52044025 7.93680581 1.65276197
O 8.77865133 2.81258052 0.86268503
O 3.67393315 7.79404914 2.70895685
O 2.95380491 9.83803769 7.68823433
O 0.98448137 5.34996190 7.69970981
O 6.71483218 4.58124916 6.37640669
O 1.67876706 9.09769469 9.65085574
O 4.09386847 8.31478783 8.93148945
O 8.55192695 0.50314336 1.75527246
O 4.41488952 1.38979926 2.00993527
O 1.06169661 8.46196721 6.29522776
O 5.99222279 4.95008904 4.06388794
O 8.14314295 4.03664302 9.07787462
O 3.11422995 5.82662758 8.80379721
O 5.30574708 0.59076839 9.74292807
O 8.40161124 5.92436744 1.05563925
O 6.63285761 4.25122319 0.21060101
O 6.01313374 7.78046271 5.73200660
O 1.22320756 2.77005174 7.09074766
O 5.37717321 6.89034383 7.63209405
O 6.99077413 9.79952369 5.72971874
O 4.24407359 5.63392348 2.20868250
O 9.80840632 9.73597304 4.29503703
O 4.70057280 0.27498807 6.05651322
O 9.78691499 0.47106626 6.79771138
O 6.92319916 7.42641515 9.55870149
O 4.73443101 4.74809013 8.01266655
135
Time=199999.99999918 pbc="T T T" Lattice="9.94194835 0.00000000 0.00000000 0.00000000 9.94194835 0.00000000 0.00000000 0.00000000 9.94194835" energy=-740.69427437 virial="827.69894034 -23.15574632 -18.85778098 -23.15574632 855.07401711 26.51706380 -18.85778098 26.51706380 848.24419047" stress="0.90147467 -0.02356374 -0.01919005 -0.02356374 0.92933209 0.02698429 -0.01919005 0.02698429 0.92238192" Properties=species:S:1:pos:R:3
Ca 4.04500391 8.71528884 9.80581899
Ca 7.30890165 2.80112319 8.81130950
Ca 3.42446692 3.03526590 0.28614940
Ca 7.22273287 9.79428584 4.26416127
Ca 0.84733752 4.15489252 2.24994676
Ca 4.40072018 1.73333373 8.60216946
Ca 5.98714315 1.39241554 1.17397769
Ca 5.53971460 9.90470562 7.58483915
Ca 8.11204406 7.82945748 6.92030474
Ca 0.04546191 9.65680220 6.21616941
Ca 8.23041329 0.58971463 8.26848274
Ca 1.88808227 1.75470115 4.42449114
Ca 5.22199389 3.13405683 6.09736024
Ca 7.22019075 6.68940439 0.98719311
Ca 4.65674465 8.65162575 4.17423362
Ca 8.28048208 9.30670623 2.52186371
Ca 9.89655069 9.64057259 0.32228065
Ca 6.45840521 6.54234463 4.53406904
Ca 6.92874075 2.99971395 3.62167673
Ca 2.14932086 5.51286053 7.52894537
Ca 2.27927422 8.42740484 1.29486884
Ca 0.12301012 6.32824014 6.30361112
Ca 1.13321822 5.08491780 9.71945029
Ca 3.42142349 6.23757524 3.15838014
Ca 5.44211541 4.85156729 1.24787875
Ca 8.46924087 4.94237747 3.82077783
Ca 4.13662626 4.97894426 5.14681258
Si 0.25128710 6.98587651 1.45276992
Si 1.94093866 7.85952543 5.65127001
Si 6.87849042 9.35527814 9.83805391
Si 8.54857506 1.91626761 1.15901822
Si 8.54267541 5.19638636 8.80625525
Si 2.09015504 2.76769417 6.87351394
Si 0.77455274 2.23035436 8.96140879
Si 4.53099925 4.40309876 8.34790660
Si 9.49359082 7.47760101 3.84970639
Si 3.65916979 6.16486448 0.10574253
Si 9.31660612 1.76194523 3.37390884
Si 4.98203204 1.22440866 4.42766714
Si 7.96896868 1.51022044 6.03653553
Si 1.35470341 1.73988411 1.61868282
Si 7.86505498 4.48787325 1.11355027
Si 0.62856598 7.49910893 8.44429124
Si 3.08480601 0.05277135 6.48759506
Si 3.89277786 3.76561704 3.01470533
Si 1.63806533 9.18803565 3.52791621
Si 7.24590769 4.76906632 6.48656103
Si 3.56841862 0.91236457 2.32128305
Si 4.70397916 7.08936686 6.59348582
Si 5.56404956 8.17148054 2.12796048
Si 1.85719240 0.50452319 8.57430747
Si 9.77847464 3.36189621 6.14191153
Si 6.21754144 7.21679579 8.08229238
Si 1.37264033 4.75914807 4.62656988
O 2.38365421 6.33987329 5.35482818
O 6.08677342 4.14591757 7.43785253
O 8.39574085 3.98389796 7.69043427
O 9.63746669 1.08752263 1.84946863
O 0.05975667 7.42964547 0.15324934
O 4.03266453 5.87887838 7.29600642
O 7.17876414 2.71734137 1.06692087
O 3.81416268 0.76286274 0.72803789
O 3.64593802 0.12461321 8.22712985
O 6.68823159 1.75788170 7.22258860
O 5.09342524 6.10870217 9.24404465
O 8.83795259 7.18339235 2.22237483
O 8.04793604 9.85241217 6.42998448
O 5.87669211 8.13156005 0.32832660
O 9.38160011 8.41783244 8.22890761
O 2.95006854 2.51683059 2.17321867
O 6.31690965 4.59858974 5.26669678
O 2.04012238 2.11289858 8.22268039
O 8.99247626 1.48541165 4.75681383
O 8.79825105 2.11623987 7.03264646
O 9.22776731 5.24352663 1.33380005
O 2.61273522 6.96337923 9.10137766
O 0.71723172 8.26480523 2.51764899
O 1.64408383 0.14191684 7.07090334
O 1.62761947 6.25070502 1.59114643
O 6.97061375 4.79766181 9.77081874
O 3.89792250 2.59606555 4.48332859
O 0.54656527 0.24601838 3.59914140
O 7.79675116 1.23085701 3.06366118
O 3.50868892 8.19303226 6.53260277
O 2.15231583 9.20069634 5.20643441
O 5.25485168 0.87613835 2.84980637
O 6.18179927 8.34447337 6.02950520
O 8.59373053 6.96762781 4.83808727
O 4.51524273 6.91251537 5.06698275
O 7.10896208 4.73227207 2.35765296
O 0.91436748 4.43590675 6.11211375
O 3.97749417 8.89346334 2.33425542
O 0.35435360 0.70483289 8.18732337
O 0.89024065 2.42370037 2.94206086
O 6.58428489 8.27125021 3.44793815
O 8.02156679 0.51946018 0.70551839
O 2.77165142 4.02747386 6.07004101
O 5.90674831 6.67528915 2.48402752
O 3.13755599 4.67653692 9.01627179
O 7.94865292 3.35590704 5.39925580
O 1.41583884 2.88204868 0.45991719
O 9.19418402 3.92808151 9.56030230
O 5.19994130 4.82688723 3.35872994
O 4.70851763 0.32037013 5.77449837
O 1.34488441 7.52119643 7.24352553
O 5.89022408 0.44410754 9.37899672
O 3.25100582 0.30779235 3.88637120
O 8.15048653 5.98877263 6.46002804
O 3.53032643 4.90423559 1.18451492
O 0.61617618 5.70754363 3.78878290
O 8.76172280 8.99152907 4.16315985
O 7.14931664 8.79566898 8.37957039
O 4.04968773 7.09430763 1.26748707
O 1.93073546 0.34197911 2.32486563
O 3.16807842 1.65280447 6.44101302
O 2.58754340 4.49814192 3.67704577
O 0.71140627 3.39766813 7.84582888
O 4.94747383 8.02982172 8.08436659
O 5.00939111 3.06650528 2.15374762
O 0.52455663 7.65612037 5.17493564
O 9.17618110 1.95926683 9.40206700
O 8.06388257 8.53522267 0.39126794
O 6.40250680 9.49269872 1.75801844
O 7.58659625 6.52447485 8.73613286
O 6.26039592 6.28160011 6.82358020
O 1.89740889 8.83348300 9.32583078
O 1.69986904 0.98811227 0.10182044
O 2.53861159 7.86091791 3.91553177
O 0.92019012 1.98492366 6.12805451
O 3.69226360 3.35891873 7.64837599
O 0.29419486 3.66909652 4.41228403
O 5.25358063 3.28457517 9.32671823
O 8.86903122 2.96464484 2.25830978
O 6.43478136 1.36847878 4.82675822
O 9.92937912 5.75682219 8.32090695
135
Time=299999.99999840 pbc="T T T" Lattice="9.94194835 0.00000000 0.00000000 0.00000000 9.94194835 0.00000000 0.00000000 0.00000000 9.94194835" energy=-731.72168571 virial="810.08896936 -17.77988649 -17.18719874 -17.77988649 833.90463253 -2.34540729 -17.18719874 -2.34540729 878.06767585" stress="0.88355442 -0.01809316 -0.01749003 -0.01809316 0.90778971 -0.00238673 -0.01749003 -0.00238673 0.95273089" Properties=species:S:1:pos:R:3
Ca 6.63313075 0.64438200 0.57958179
Ca 7.35581914 3.42785509 1.64662869
Ca 2.23069404 5.89735795 9.23434235
Ca 7.41782252 7.05081168 7.44680281
Ca 1.29478308 0.42328178 8.11463448
Ca 5.50722146 3.08879218 4.37307336
Ca 3.06437499 2.86656370 9.82324679
Ca 9.90218782 5.14407351 5.67813969
Ca 3.00567829 1.87462362 4.22140995
Ca 1.68653603 4.08795249 1.30372309
Ca 5.91249237 4.85944717 0.05176730
Ca 5.10083633 5.94441556 5.38622497
Ca 8.22330994 3.29796573 5.41988720
Ca 8.55695839 1.96973279 8.01539958
Ca 4.80521991 9.57062519 2.92883141
Ca 5.00315499 9.00246035 5.88666311
Ca 2.82191656 8.75277355 8.38487286
Ca 5.53812837 1.70324514 8.78818980
Ca 1.18418000 6.96550421 3.24890329
Ca 0.72038561 1.65203717 2.53435471
Ca 3.72623497 7.11679296 3.95475554
Ca 6.81149443 8.90059555 8.39954618
Ca 7.32886019 7.50474235 0.65326802
Ca 9.04282648 5.78397048 2.51457026
Ca 9.78785303 5.67753330 9.52132967
Ca 3.27074337 6.75366415 1.30642945
Ca 0.71929392 7.88737341 0.94955695
Si 9.15946853 0.30851763 0.01739488
Si 9.67059717 7.70474969 4.84930644
Si 6.50206330 0.88329970 5.97032907
Si 9.87013291 2.82186081 0.38464881
Si 8.78429361 9.52895386 6.56490827
Si 3.18941370 3.98860792 6.84815813
Si 4.83348400 6.29705277 7.96070262
Si 0.21105606 3.49233320 3.15955537
Si 2.37053742 0.45737538 0.55343289
Si 2.21415071 4.21486807 4.34458545
Si 5.61879213 3.60655283 7.18078349
Si 0.73222985 1.71437485 5.55020622
Si 7.57919187 5.75556057 5.06222363
Si 7.49703873 1.03219685 3.42468462
Si 4.69293569 8.59524432 0.07488168
Si 6.39023273 6.55550855 2.41290621
Si 1.99002052 9.51804916 3.28238760
Si 3.40851470 1.19318636 7.02394065
Si 2.45033757 6.43417137 6.17504115
Si 8.50991462 9.32773642 2.47307059
Si 4.92065198 2.28663019 1.75947536
Si 0.23233557 7.91076723 7.85908739
Si 3.99312858 4.46171354 2.52587157
Si 0.99615891 3.20049463 8.02234197
Si 8.02630898 4.45283044 8.39558424
Si 6.99483613 8.17741731 4.37548657
Si 2.33266173 9.26640737 5.52080284
O 2.52995397 2.72266730 7.69499125
O 9.89731596 2.56808565 4.48877538
O 3.17997753 5.99345707 7.38811585
O 1.19774541 6.96576405 5.38616020
O 3.86239818 7.28392471 9.16961851
O 6.83730606 3.14710138 8.10309875
O 1.54864776 2.11543400 0.94445757
O 1.11278955 8.62502378 4.39249197
O 7.36596251 2.40984266 4.14188834
O 6.54421271 4.60657905 5.33217663
O 7.94033995 0.64377896 9.26975005
O 0.08042380 0.16050682 5.86360616
O 2.24014553 3.25389523 5.54426074
O 4.89741260 5.90234587 3.07132750
O 6.98508300 5.35372293 1.81347884
O 9.53268964 4.21250221 1.14729294
O 7.22314913 8.97981687 6.42058039
O 7.79916297 5.79871503 9.27702943
O 0.93515958 9.50593888 2.30797844
O 3.68219072 3.68927604 4.16590462
O 0.38607447 1.87752233 9.17970165
O 0.24835211 2.45729956 6.77418934
O 5.74546553 3.88734682 2.45774199
O 6.26130951 2.32494465 6.23367779
O 6.48086300 0.07071975 4.60562722
O 4.37660526 4.43228565 8.40777968
O 7.20739718 7.88733542 2.73754827
O 6.28338859 5.02813030 7.91042063
O 0.85608705 9.87617375 0.13566671
O 8.90736763 7.79594282 8.83138705
O 4.29475171 1.44675062 5.67720865
O 1.14297956 0.98082896 4.21017742
O 9.42216614 9.41667861 8.17608291
O 8.91049633 6.69170744 0.81388676
O 2.63151056 5.29735689 2.83325908
O 0.82860875 6.31584937 7.46661252
O 1.28251452 3.97201610 9.45234360
O 8.20511967 1.19349980 5.97908141
O 3.70393056 4.80220677 1.00035828
O 3.59666660 2.93044807 2.23450836
O 7.91318686 5.37736549 6.70517488
O 2.61211399 8.28076807 2.48269277
O 5.76557927 2.79967322 0.50347422
O 6.06570894 7.03582490 8.87777053
O 9.52043280 4.20231559 8.20035738
O 1.70542593 8.24385324 6.75440778
O 5.49782640 8.01569869 4.06044691
O 8.90505241 1.32905337 1.30175867
O 6.99558025 0.00334474 2.34082790
O 9.08336853 0.57510244 3.15037674
O 4.48724718 2.47006009 7.64657094
O 5.91442525 0.33418409 7.22570006
O 8.11450757 3.12833850 9.58226231
O 5.94102669 8.79046762 0.82343059
O 5.19117199 7.04775824 1.44992897
O 6.90637879 5.48630403 3.57631616
O 8.44671432 8.94711486 4.63239398
O 3.07625611 8.79505474 0.46521342
O 0.84152990 4.95502305 3.99380972
O 4.34466754 0.84913953 1.06049116
O 7.24724538 7.17157038 5.50264240
O 2.17833331 0.92264174 6.15467668
O 9.24613135 7.78154927 6.44436015
O 3.03925089 5.38905419 5.28544815
O 1.43168393 4.53856533 7.13162802
O 8.87780668 6.55828726 4.61772659
O 1.28155966 7.77770494 9.07531785
O 8.56013143 4.25435627 3.53536164
O 4.48524967 4.19191754 6.20916198
O 2.84808009 1.10066960 9.09952151
O 1.88276277 3.21863102 3.21013474
O 3.67300665 7.58200860 5.83778405
O 3.39329107 9.64036680 6.71689799
O 5.39035079 7.33458804 6.99258074
O 8.59524383 9.08670045 0.88397908
O 2.76425053 0.55916585 2.56497309
O 4.87919952 9.30571679 8.60505306
O 5.69958017 1.44350532 2.92668393
O 3.39304130 9.44961342 4.39965898
O 1.31864312 6.03046957 0.97937053
O 9.44099858 7.98320536 3.04883188
135
Time=400000.00000008 pbc="T T T" Lattice="9.94194835 0.00000000 0.00000000 0.00000000 9.94194835 0.00000000 0.00000000 0.00000000 9.94194835" energy=-724.86673457 virial="892.41750172 -20.10431381 -9.71717551 -20.10431381 826.58620249 -1.65237630 -9.71717551 -1.65237630 762.97022447" stress="0.96733355 -0.02045855 -0.00988839 -0.02045855 0.90034233 -0.00168149 -0.00988839 -0.00168149 0.83560546" Properties=species:S:1:pos:R:3
Ca 1.23403608 5.42532858 9.28512727
Ca 3.99241737 3.87969730 2.15867582
Ca 4.31904972 7.83934810 5.84445251
Ca 7.32990440 7.44050729 5.21488440
Ca 2.86741600 2.33910115 1.47598948
Ca 7.89871962 1.74628615 2.62359758
Ca 4.54608205 2.17642183 3.86738111
Ca 4.59172455 5.07626185 9.37649329
Ca 0.06194215 2.99040375 1.78556996
Ca 4.51304272 6.75939646 2.23249174
Ca 8.19500182 2.15374555 6.83484463
Ca 2.73259336 7.76734036 4.27180770
Ca 0.78709286 0.99904870 1.85042869
Ca 7.36169291 3.87711716 4.59485048
Ca 5.48192661 9.08586703 1.20838291
Ca 2.69875928 7.53502738 1.19855705
Ca 1.00294248 0.21470857 5.16624455
Ca 7.08299255 7.17611184 9.52277791
Ca 9.64352640 2.50780093 9.34045054
Ca 8.31588220 9.15064694 1.31009906
Ca 1.12571861 1.23765313 7.38587475
Ca 4.19335360 3.43017796 6.82518383
Ca 7.91819869 0.36337767 9.24440286
Ca 1.24183973 5.49744285 4.42930783
Ca 8.31094938 0.03630593 4.63649905
Ca 9.54018264 6.60482161 0.73558495
Ca 5.53347103 9.25551755 3.60196738
Si 4.93202487 4.89626688 4.87076319
Si 6.55858318 3.52124553 8.43327308
Si 6.59226188 8.91425207 7.21599051
Si 5.74032137 1.58203710 1.67491114
Si 8.99904183 5.63800521 3.30452003
Si 1.73453364 4.88022526 2.15017873
Si 2.90319237 0.60861325 8.97357762
Si 7.36331308 7.27972964 2.65426915
Si 0.83826431 8.96796265 0.06691912
Si 4.60488526 8.01659674 8.74595671
Si 0.52758963 8.39952323 2.97015981
Si 3.38241969 5.77479734 6.94921813
Si 1.03754607 4.05406749 6.62997644
Si 6.28746223 5.50710205 6.95169475
Si 8.53822321 4.84209358 7.23774738
Si 0.18793865 7.31103546 5.99241190
Si 8.09216634 4.67367571 9.80418065
Si 3.61852364 0.63413962 6.10256564
Si 3.19355876 9.89867271 3.01532813
Si 2.17878577 2.87620210 4.24690154
Si 6.17521882 4.21900630 1.56642361
Si 9.53077850 9.00873651 7.65141439
Si 2.33800526 3.49992163 9.18443157
Si 5.14341596 1.50349519 8.87789254
Si 9.51248980 2.91461317 4.60339810
Si 2.15206306 8.33308763 7.96020325
Si 6.15905033 0.83100679 5.81791463
O 3.90647192 6.07430825 5.48124711
O 5.89866010 7.23752723 7.25330640
O 1.14523932 3.36315102 5.18106932
O 2.48277233 4.72565911 6.11617228
O 8.36979977 3.59814066 8.48558134
O 0.34530839 8.39286608 1.38330459
O 3.35853398 7.10701407 8.01535763
O 5.53346944 3.54797385 5.35735787
O 4.58183357 0.62552196 2.42990366
O 6.40588911 5.09267617 8.64912186
O 0.26865749 5.67061382 2.35778958
O 3.57625126 9.21708917 8.66493052
O 3.72053460 8.57209698 2.50571671
O 8.65639390 5.66605766 8.67422450
O 2.68582412 4.82451393 8.46297239
O 5.20925726 3.25182946 8.77642443
O 3.40099795 3.72590948 4.45810463
O 8.23446817 1.95157166 0.78283601
O 6.19405960 1.06316924 9.86436423
O 5.60202295 7.46154911 3.86058179
O 1.63853632 7.61383984 9.60160083
O 7.34967900 5.74118645 3.07164772
O 3.69215953 3.16888647 9.75661828
O 6.21258758 5.64598269 5.32808871
O 0.53778213 3.96005513 8.11999426
O 9.47002682 4.38141408 0.33846921
O 6.83987161 0.42297865 1.80569048
O 0.29644579 5.66456217 6.47773381
O 1.86465217 3.40521840 2.67304783
O 6.32664380 2.76954201 2.79929739
O 0.37610642 7.37742693 7.83630546
O 2.77937908 1.42067987 3.30755680
O 4.73869900 1.76156818 6.00454605
O 0.59078304 7.86891840 4.58963474
O 1.46409148 7.10676463 2.84681159
O 9.20763035 3.91505949 5.99817542
O 5.22093840 5.32369856 1.14005349
O 3.93379100 9.66032274 4.56647528
O 2.06280250 7.26125972 6.11893177
O 5.41318625 2.81989357 0.84596910
O 9.75850725 0.16177737 0.15976892
O 9.26941532 0.52647333 7.85313606
O 4.00351389 0.94679943 0.09684364
O 6.27281572 7.16913381 1.43082841
O 2.50025656 5.46938458 0.95045421
O 0.86497692 1.85176492 3.74593211
O 2.33152498 9.39660409 1.00701839
O 7.39282280 8.74203107 3.14550049
O 9.93445033 4.18385515 3.87872180
O 2.12102646 2.74958542 7.14837333
O 1.59142790 9.84146264 8.60941742
O 9.06312249 8.21843719 9.50180501
O 1.77728875 1.82137954 9.44659570
O 8.85400131 8.35341231 6.12038289
O 9.67865378 1.81706529 5.83355083
O 6.36997642 2.02235754 7.67895003
O 6.80036982 3.95475860 6.87078280
O 2.49713812 1.83626083 5.58641308
O 1.61125837 9.60837056 3.46729126
O 3.20421430 5.61132036 3.18258773
O 8.17141130 3.99579733 2.65007635
O 1.33670732 3.73839527 0.57926829
O 5.80940591 8.90447315 8.97806172
O 3.68677134 1.70424863 7.70749974
O 7.63216270 0.30985948 6.67052903
O 8.86385482 7.30240500 2.83637719
O 9.50076551 9.78635657 2.95369901
O 6.05816365 9.18963340 5.68486102
O 5.48524390 4.89490525 3.39334136
O 4.83952896 5.07947593 7.52804366
O 3.02036142 9.23074029 6.42415036
O 8.07181163 2.21648640 4.60860624
O 7.97772363 5.67769341 1.12694306
O 4.34429696 7.09385888 0.06283526
O 5.44343023 0.30753629 7.24221560
O 7.85536335 6.22857599 6.88544339
O 6.31037007 1.27036445 4.19471010
O 7.77816938 8.22250939 7.85441587
O 8.78117952 6.38262655 4.73863804
O 1.06622131 9.03272972 6.73793005
O 6.86292927 3.59118771 0.25952137
135
Time=500000.00000301 pbc="T T T" Lattice="9.94194835 0.00000000 0.00000000 0.00000000 9.94194835 0.00000000 0.00000000 0.00000000 9.94194835" energy=-738.86616323 virial="820.56749865 15.65225031 -44.68235589 15.65225031 843.76273952 7.67466909 -44.68235589 7.67466909 839.25422402" stress="0.89421758 0.01592804 -0.04546964 0.01592804 0.91782151 0.00780989 -0.04546964 0.00780989 0.91323356" Properties=species:S:1:pos:R:3
Ca 8.38169820 2.24094436 7.16536431
Ca 1.65534982 8.99897481 1.24595146
Ca 4.79663173 3.32375998 2.44786770
Ca 9.70024882 0.03725024 2.19363949
Ca 0.76511164 0.39351710 7.24262946
Ca 2.18454995 5.24322921 5.28047472
Ca 5.66646657 5.10898719 4.55254888
Ca 1.80239800 9.88018460 4.75243606
Ca 0.23699737 2.20434671 2.22678284
Ca 8.20414420 3.40498637 9.50253069
Ca 8.55066350 5.44459752 4.85685834
Ca 5.63417673 1.00078740 0.90383979
Ca 8.43515971 6.67950525 8.21653038
Ca 7.04263478 2.56835959 1.90585152
Ca 2.62005741 3.61492477 9.89165786
Ca 6.67184467 0.42731631 7.61057716
Ca 5.32320880 3.14675375 9.10267924
Ca 4.09630023 9.54959879 3.13625855
Ca 0.55466020 2.92531777 5.18662275
Ca 5.60541570 6.65241045 7.72862940
Ca 2.58132903 2.29588577 4.54486362
Ca 8.60816058 7.67978617 0.79418659
Ca 3.84076851 0.79789131 9.32409523
Ca 6.27591035 7.74885654 5.33469295
Ca 5.12203737 2.63636914 6.05086948
Ca 7.10885165 5.00190715 2.53334961
Ca 4.17833364 8.38854643 9.80324199
Si 7.50793008 2.78764737 4.33476425
Si 1.83020372 6.13789174 8.42473448
Si 3.61648422 4.70491185 7.52177210
Si 2.67790024 1.50252109 1.88842249
Si 1.48990136 7.00861255 2.38603032
Si 0.13799782 4.26037918 7.52494271
Si 6.94115561 8.86804951 0.27745553
Si 2.35971242 4.63305994 2.98323674
Si 9.26329232 4.72001485 2.51430219
Si 5.73592652 7.37251308 2.61642024
Si 0.73880092 8.18700658 8.61181964
Si 6.28753111 5.51033737 0.15928610
Si 6.00680252 0.47564466 4.54013299
Si 3.00773829 7.51640747 7.45991091
Si 9.23008332 7.78767057 3.63990928
Si 2.08289071 2.65683876 7.32678182
Si 9.29369139 0.34564979 5.04701567
Si 3.64937559 6.03821827 0.55336087
Si 8.40701152 8.51290650 6.50576390
Si 0.52737708 1.91979756 9.50843336
Si 0.23735729 5.24338898 0.20104009
Si 6.86507864 4.40658012 7.08133869
Si 7.29407261 9.87810958 2.98009437
Si 8.51663790 0.81742342 9.89717307
Si 0.78728397 7.15606615 5.97557479
Si 4.29704578 9.62269538 6.53206368
Si 3.27073426 7.29369055 4.27017247
O 7.02341200 6.52913183 3.76161029
O 0.27755945 4.72104213 5.95838671
O 7.02135122 7.49990795 9.39837195
O 6.77789123 1.67373310 5.33539114
O 0.10491474 1.31046574 4.18840332
O 9.26253507 6.65641887 6.50870452
O 0.36817771 2.45923131 7.07474455
O 4.10777224 8.47757892 5.28978591
O 8.37740489 3.82423837 1.53460640
O 3.10314282 4.85901014 1.53004210
O 4.33710257 0.82040946 4.90030025
O 3.93505348 5.07550408 9.11996530
O 3.64407194 6.19331526 7.08321714
O 0.18060902 5.62346576 8.44957240
O 0.93655248 5.53139696 1.81187205
O 9.91280235 9.73493446 9.74992224
O 2.14926408 1.43671811 6.09634077
O 0.22980915 8.01413054 2.44108112
O 4.52378417 7.48896055 3.45695570
O 6.11086352 1.24854002 3.02427316
O 2.34045475 8.15281642 3.15417773
O 5.28179444 9.64656224 9.38981288
O 4.10778921 0.89699215 7.31626083
O 8.44133865 8.06340556 5.00252533
O 2.99096023 6.85616737 8.79343268
O 8.44399823 1.35852320 2.78318256
O 0.70022110 6.81015185 4.22053320
O 6.82564686 5.90199295 6.33583370
O 5.15558249 5.74726635 1.95888759
O 2.54888923 9.07637170 6.93763757
O 2.68189598 6.01880060 3.30792220
O 7.04581042 8.23868370 7.20401597
O 5.92053846 9.55396493 5.89692315
O 5.11782279 6.57880106 9.79918747
O 1.94040059 9.06209001 9.10328178
O 6.43534962 3.37998156 3.30961208
O 6.07607562 9.16975416 3.56560533
O 3.64699819 2.05855847 2.99519299
O 2.98088373 3.46974436 6.24855550
O 8.64541343 5.61614705 0.42077455
O 1.78443579 1.58854241 0.55447458
O 7.05635210 6.67253370 1.39915748
O 3.57109978 0.07769753 1.12560036
O 0.14416409 9.06817195 4.28494403
O 7.17146578 1.81407929 9.57542888
O 8.25913293 8.51749874 2.74493762
O 5.85554340 8.68604821 1.60826860
O 4.06695745 6.01168648 4.62305918
O 1.04556711 3.31062826 8.71393055
O 8.67104253 3.71629661 3.76830919
O 0.69681560 7.07126924 9.86823347
O 7.76031450 0.24885400 4.52704278
O 7.00175226 4.77412395 8.86468950
O 4.46124126 8.32360170 7.55528206
O 8.95893654 6.25784394 2.78526480
O 1.35318405 7.28801649 7.58047043
O 3.69809087 3.93960866 4.17307617
O 8.68047826 0.23353352 6.59550736
O 3.71988658 3.30887487 8.04417479
O 6.03468123 4.02632083 0.89065302
O 5.29091497 4.53251433 7.18836523
O 9.18447026 1.41819169 8.56298726
O 0.15750275 3.71116695 0.73846413
O 1.03565293 4.33802808 3.64778304
O 0.39842633 8.67319053 6.27057284
O 4.19356444 2.35285459 0.73321170
O 2.30721806 7.37300420 5.54192190
O 7.91619463 0.01399190 1.33338372
O 1.91545473 5.44181967 0.00815116
O 2.15697270 3.16675744 2.06374994
O 1.67965054 0.47490167 2.68893475
O 3.02150029 7.32521990 1.24542573
O 8.37242747 4.41607870 7.44825986
O 7.74179755 9.56150280 9.06583700
O 9.39582789 8.48928660 7.99533348
O 8.71875353 2.03726500 5.33436377
O 7.33811039 3.92208955 5.47684057
O 1.94012384 4.85998689 7.40730762
O 6.54508588 2.87645706 7.74347016
O 9.32977981 1.79878517 0.71449536
O 1.75979018 1.55926884 8.59726523
135
Time=600000.00000594 pbc="T T T" Lattice="9.94194835 0.00000000 0.00000000 0.00000000 9.94194835 0.00000000 0.00000000 0.00000000 9.94194835" energy=-728.55389429 virial="911.21871785 30.07926876 29.28885055 30.07926876 837.56606923 35.82979007 29.28885055 35.82979007 762.83763242" stress="0.98646604 0.03060926 0.02980491 0.03060926 0.91151566 0.03646110 0.02980491 0.03646110 0.83547053" Properties=species:S:1:pos:R:3
Ca 8.83386169 9.16081451 5.74623266
Ca 0.70133713 4.30185133 3.79215506
Ca 8.08913777 1.01469725 7.67661397
Ca 0.43586798 5.66952003 0.17722914
Ca 2.57292844 6.39398904 9.17441206
Ca 5.45122391 5.74205464 2.95426134
Ca 6.80536716 9.07415406 8.32044875
Ca 7.76107590 6.12283162 0.79878858
Ca 2.01202806 3.72910708 6.46202472
Ca 8.54787417 9.64257670 0.35644628
Ca 0.57879291 8.68917792 1.05745240
Ca 9.65955911 2.48161967 0.41110497
Ca 0.47237911 2.21559943 7.26990781
Ca 6.31640531 1.75296202 5.97128799
Ca 3.57383072 5.58923997 1.10155701
Ca 2.62290069 8.88480793 6.05052293
Ca 6.90247316 2.75602840 8.56299091
Ca 6.60287838 7.56403104 5.04715248
Ca 1.06848058 7.56197029 4.21954138
Ca 1.38727192 6.33738329 6.86687885
Ca 4.55001173 4.53144727 7.89059668
Ca 6.23863473 7.79388605 1.90337535
Ca 4.21447418 1.73410318 8.44838130
Ca 7.48222238 9.57452059 3.54754183
Ca 5.72585797 0.29684627 0.31193958
Ca 7.25102772 2.49043399 1.07826178
Ca 1.19387939 5.62101763 2.31698243
Si 7.46172733 4.04191609 5.79686398
Si 8.68098812 2.41026913 4.24009243
Si 8.07268739 4.69432331 2.84179362
Si 5.13118411 0.42681783 3.05496872
Si 3.85704435 3.89967076 3.51076536
Si 3.19182203 5.64133680 4.77659008
Si 1.69339664 0.89604687 9.49961071
Si 4.32103890 6.98895371 7.14078928
Si 0.72597698 9.30664561 7.76298970
Si 3.43456309 8.31267679 1.55447919
Si 0.67448558 1.13221739 4.97643002
Si 5.69983544 7.03361840 9.57439748
Si 1.91514351 2.13335285 1.99760367
Si 8.95911734 7.46779819 8.26784143
Si 0.26314435 0.65668961 2.39368400
Si 2.12232843 3.62711415 9.50696649
Si 2.53630487 0.23978604 3.09721773
Si 4.42550253 2.90483638 1.08014735
Si 9.24364512 5.74564244 5.72693970
Si 6.03539271 2.84094140 3.50193851
Si 4.45886972 7.95821629 4.41795835
Si 3.30919397 8.75730840 9.03584401
Si 5.25639251 9.70550538 6.93011920
Si 8.76852994 7.21803553 2.99104077
Si 9.11005980 4.09780450 8.60061748
Si 3.42047737 2.00184295 5.31998608
Si 6.93559027 5.68832886 7.69098510
O 2.76447600 5.10420213 3.19432271
O 7.09868504 1.79393948 3.85570540
O 5.52184873 0.46634493 4.58579205
O 2.33930261 2.12164876 8.51765197
O 0.33828263 7.20395223 2.20411225
O 2.12164104 4.78433347 8.39280992
O 9.49029578 5.62180126 7.93946642
O 3.80261370 2.96513201 6.66794682
O 3.80657246 1.35556801 3.82268873
O 3.07747411 7.25638800 4.89854269
O 0.02434785 0.43042354 6.74335999
O 1.22704460 7.81131871 8.50022529
O 1.52954774 0.56640875 1.78220202
O 4.21165802 7.87005214 0.27179392
O 7.37713472 5.68121874 5.64625374
O 9.64750507 6.10835042 3.97301142
O 8.64986286 3.17284814 2.55307005
O 7.83990776 4.48835856 7.52384501
O 2.28393147 4.51674171 0.82524479
O 8.44876399 8.26167152 4.15166486
O 2.57626800 9.22090241 0.27471972
O 7.49935805 0.76700591 9.38937168
O 0.92527927 8.36755452 6.27515875
O 8.74717171 2.73183833 8.40466051
O 5.90198438 1.15407385 7.87505155
O 2.23374482 0.09324469 7.87980491
O 5.40490776 2.15999024 2.35335091
O 4.66599607 8.13346695 6.03773941
O 8.12965983 2.44192947 6.04223542
O 1.34410267 1.69334397 3.40027967
O 2.26167182 7.16243612 1.11519122
O 8.62453524 4.29424974 4.33857553
O 7.46436993 7.01203667 8.66592036
O 1.60613250 2.25476282 0.54849026
O 0.14935483 0.88049878 9.31870784
O 1.59144257 5.66497979 4.96309079
O 4.54076980 9.64066734 8.66125383
O 9.09460490 9.17537005 8.09013428
O 0.01146460 4.37560391 6.45764857
O 8.88462560 7.19109814 6.60751531
O 1.12481276 9.57933348 4.66030642
O 1.99419608 1.53533562 5.98034507
O 5.89687628 3.97198343 6.50832972
O 4.70926472 4.19813170 2.14648347