 running on   52 total cores
 distrk:  each k-point on   52 cores,    1 groups
 distr:  one band on   13 cores,    4 groups
 using from now: INCAR     
 vasp.5.4.4.18Apr17-6-g9f103f2a35 (build Oct 31 2019 15:01:46) complex          
  
 POSCAR found type information on POSCAR  Sc F  C 
 POSCAR found :  3 types and      80 ions
 scaLAPACK is switched off
 LDA part: xc-table for Pade appr. of Perdew
 generate k-points for:    3    3    1
 POSCAR, INCAR and KPOINTS ok, starting setup
 FFT: planning ...
 WAVECAR not read
 entering main loop
       N       E                     dE             d eps       ncg     rms          rms(c)
DAV:   1     0.136738886832E+05    0.13674E+05   -0.27875E+05  4264   0.156E+03
DAV:   2     0.249777535285E+04   -0.11176E+05   -0.10872E+05  4632   0.534E+02
DAV:   3    -0.373996307216E+03   -0.28718E+04   -0.27544E+04  6792   0.294E+02
DAV:   4    -0.737733197743E+03   -0.36374E+03   -0.35920E+03  6064   0.139E+02
DAV:   5    -0.752473150338E+03   -0.14740E+02   -0.14678E+02  6080   0.355E+01    0.767E+01
DAV:   6    -0.597100219106E+03    0.15537E+03   -0.83964E+02  5744   0.647E+01    0.250E+01
DAV:   7    -0.597320078502E+03   -0.21986E+00   -0.54063E+01  5944   0.214E+01    0.162E+01
DAV:   8    -0.595895122275E+03    0.14250E+01   -0.10209E+01  5576   0.800E+00    0.449E+00
DAV:   9    -0.595389597231E+03    0.50553E+00   -0.26788E+00  5464   0.510E+00    0.210E+00
DAV:  10    -0.595356342959E+03    0.33254E-01   -0.25529E-01  5888   0.163E+00    0.116E+00
DAV:  11    -0.595246308089E+03    0.11003E+00   -0.14840E-01  5520   0.107E+00    0.784E-01
DAV:  12    -0.595223439524E+03    0.22869E-01   -0.46822E-02  6064   0.559E-01    0.314E-01
DAV:  13    -0.595216719830E+03    0.67197E-02   -0.30618E-02  5760   0.404E-01    0.304E-01
DAV:  14    -0.595214944286E+03    0.17755E-02   -0.14163E-02  5672   0.275E-01    0.139E-01
DAV:  15    -0.595220544289E+03   -0.56000E-02   -0.63140E-03  5896   0.171E-01    0.861E-02
DAV:  16    -0.595224120889E+03   -0.35766E-02   -0.14407E-03  5544   0.107E-01    0.719E-02
DAV:  17    -0.595229163086E+03   -0.50422E-02   -0.13742E-03  5752   0.759E-02    0.684E-02
DAV:  18    -0.595231969750E+03   -0.28067E-02   -0.60100E-04  5352   0.640E-02    0.358E-02
DAV:  19    -0.595233524250E+03   -0.15545E-02   -0.27373E-04  5808   0.378E-02    0.200E-02
DAV:  20    -0.595236282349E+03   -0.27581E-02   -0.99906E-05  5096   0.194E-02    0.182E-02
DAV:  21    -0.595238360521E+03   -0.20782E-02   -0.10927E-04  4248   0.164E-02    0.807E-03
DAV:  22    -0.595239313967E+03   -0.95345E-03   -0.87073E-05  4800   0.131E-02    0.999E-03
DAV:  23    -0.595239632401E+03   -0.31843E-03   -0.11400E-05  4712   0.912E-03    0.465E-03
DAV:  24    -0.595239924098E+03   -0.29170E-03   -0.12779E-05  4536   0.530E-03    0.236E-03
DAV:  25    -0.595240069463E+03   -0.14537E-03   -0.36871E-06  3728   0.291E-03    0.155E-03
DAV:  26    -0.595240119450E+03   -0.49986E-04   -0.61940E-07  2792   0.178E-03    0.117E-03
DAV:  27    -0.595240146995E+03   -0.27545E-04   -0.41874E-07  2680   0.187E-03    0.837E-04
DAV:  28    -0.595240165655E+03   -0.18660E-04   -0.52243E-07  2736   0.160E-03    0.713E-04
DAV:  29    -0.595240173006E+03   -0.73510E-05   -0.30992E-07  2600   0.164E-03    0.624E-04
DAV:  30    -0.595240175906E+03   -0.28995E-05   -0.22049E-07  2536   0.112E-03    0.549E-04
DAV:  31    -0.595240177091E+03   -0.11852E-05   -0.13646E-07  2496   0.110E-03    0.593E-04
DAV:  32    -0.595240177856E+03   -0.76531E-06   -0.83253E-08  2472   0.682E-04
   1 F= -.59524018E+03 E0= -.59524018E+03  d E =-.657789E-18
