<?xml version="1.0" encoding="ISO-8859-1"?>
<modeling>
 <generator>
  <i name="program" type="string">vasp </i>
  <i name="version" type="string">5.4.4.18Apr17-6-g9f103f2a35  </i>
  <i name="subversion" type="string">(build Oct 31 2019 15:01:46) complex            parallel </i>
  <i name="platform" type="string">LinuxIFC </i>
  <i name="date" type="string">2024 04 19 </i>
  <i name="time" type="string">22:45:53 </i>
 </generator>
 <incar>
  <i type="int" name="ISTART">     0</i>
  <i type="string" name="PREC">anormal</i>
  <i type="logical" name="ADDGRID"> T  </i>
  <i type="int" name="IBRION">    -1</i>
  <i name="EDIFF">      0.00000100</i>
  <i name="EDIFFG">     -0.01000000</i>
  <i type="int" name="NSW">     1</i>
  <i type="int" name="ISIF">     2</i>
  <i type="int" name="ISYM">     2</i>
  <i name="ENCUT">    600.00000000</i>
  <i name="POTIM">      1.00000000</i>
  <i type="string" name="LREAL"> Auto.</i>
  <i type="int" name="ISMEAR">     0</i>
  <i name="SIGMA">      0.05000000</i>
  <i name="KSPACING">      0.25000000</i>
  <i type="logical" name="LWAVE"> F  </i>
  <i type="logical" name="LCHARG"> F  </i>
  <i type="logical" name="LSCALAPACK"> F  </i>
  <v type="int" name="KPOINT_BSE">    -1     0     0     0</v>
 </incar>
 <structure name="primitive_cell" >
  <crystal>
   <varray name="basis" >
    <v>      13.12862340       0.00000000       0.00000000 </v>
    <v>      -6.56431170      11.36972138       0.00000000 </v>
    <v>       0.00000000       0.00000000      26.82809424 </v>
   </varray>
   <i name="volume">   4004.59716953 </i>
   <varray name="rec_basis" >
    <v>       0.07616945       0.04397645       0.00000000 </v>
    <v>       0.00000000       0.08795290       0.00000000 </v>
    <v>       0.00000000       0.00000000       0.03727436 </v>
   </varray>
  </crystal>
  <varray name="positions" >
   <v>       0.08502658       0.16256127       0.44843450 </v>
   <v>       0.17431551       0.32454765       0.40638969 </v>
   <v>       0.00112439       0.00850924      -0.49928616 </v>
   <v>       0.24758389       0.24966321       0.49871116 </v>
   <v>      -0.09688581       0.07864099       0.40700242 </v>
   <v>       0.16550099       0.07303315       0.39847100 </v>
   <v>       0.00211879       0.24756842      -0.49919802 </v>
   <v>       0.31766253       0.16335532       0.45125127 </v>
   <v>       0.15511066       0.08436797      -0.45454936 </v>
   <v>      -0.16652116      -0.08450272       0.45374270 </v>
   <v>      -0.16374977       0.16329222       0.45589117 </v>
   <v>       0.33969094       0.41255385       0.45307593 </v>
   <v>       0.08077728      -0.09243156       0.45425826 </v>
   <v>       0.16052088       0.33635363      -0.45114604 </v>
   <v>       0.08784873       0.42008614       0.45027014 </v>
   <v>      -0.09226866       0.07584722      -0.45044418 </v>
   <v>       0.40697902       0.33055137       0.41152744 </v>
   <v>      -0.08207539      -0.16770543       0.41591000 </v>
   <v>       0.08602347       0.17264037      -0.40784276 </v>
   <v>      -0.06423982       0.33933082       0.40823783 </v>
   <v>       0.24592868       0.00085005       0.49721442 </v>
   <v>       0.24179633       0.49322825       0.49614267 </v>
   <v>      -0.25519212      -0.00053808      -0.49953045 </v>
   <v>       0.41729182       0.33209781      -0.45696419 </v>
   <v>      -0.08020076       0.32958714      -0.45364059 </v>
   <v>      -0.09412020      -0.17329148      -0.44623870 </v>
   <v>       0.41154603       0.09064067       0.41221281 </v>
   <v>       0.16684701      -0.16111029       0.40848499 </v>
   <v>       0.07975842      -0.06769911      -0.40157757 </v>
   <v>      -0.16911805      -0.08059180      -0.40853969 </v>
   <v>       0.00522376      -0.24361658      -0.49731745 </v>
   <v>      -0.33001821       0.08059023       0.40450967 </v>
   <v>       0.32774213       0.43052776      -0.40687073 </v>
   <v>       0.33979992       0.19280305      -0.40055962 </v>
   <v>      -0.49918897       0.25270169       0.49982850 </v>
   <v>      -0.33727482      -0.17429347       0.41222838 </v>
   <v>       0.09121586       0.42067058      -0.40381682 </v>
   <v>       0.43636968      -0.41985682       0.40760215 </v>
   <v>      -0.24709254      -0.25316244      -0.49570731 </v>
   <v>      -0.18340386       0.15143200      -0.40545679 </v>
   <v>      -0.49433024       0.49563602      -0.49669301 </v>
   <v>       0.00144617      -0.49914448       0.49924337 </v>
   <v>       0.15745160      -0.41458150       0.40436523 </v>
   <v>      -0.25094404       0.25620439       0.49943651 </v>
   <v>       0.41535824       0.10102106      -0.45335522 </v>
   <v>       0.16561300      -0.16402701      -0.45297868 </v>
   <v>      -0.15637893       0.41284945       0.45251275 </v>
   <v>      -0.16128875      -0.33238057       0.46120405 </v>
   <v>      -0.33183842       0.08715700      -0.45635859 </v>
   <v>      -0.33492645      -0.16586346      -0.45305672 </v>
   <v>       0.34769287      -0.07681888       0.44874425 </v>
   <v>       0.41671389      -0.41321196      -0.45232843 </v>
   <v>      -0.41972584      -0.08921264       0.45342403 </v>
   <v>       0.33607190      -0.33247047       0.45274757 </v>
   <v>      -0.40868255       0.42328933       0.45460043 </v>
   <v>       0.16132712      -0.41290140      -0.45249063 </v>
   <v>      -0.42793242       0.16423316       0.44981850 </v>
   <v>      -0.41350032      -0.33045005       0.45139996 </v>
   <v>       0.07716876      -0.34130093       0.45062972 </v>
   <v>       0.31904769      -0.08944766      -0.41191857 </v>
   <v>      -0.13627061       0.42960221      -0.40942641 </v>
   <v>      -0.32827768      -0.40652824       0.40786748 </v>
   <v>      -0.42097459      -0.10269806      -0.41565435 </v>
   <v>       0.25570576      -0.24385985       0.49503809 </v>
   <v>      -0.15345995      -0.33312559      -0.40586316 </v>
   <v>      -0.07974982      -0.42172694       0.41171705 </v>
   <v>      -0.32881244       0.34103585       0.41263581 </v>
   <v>       0.33013494      -0.33325303      -0.40773753 </v>
   <v>       0.49035924      -0.25547371       0.49748730 </v>
   <v>      -0.40391772       0.41203012      -0.41202062 </v>
   <v>       0.49983452      -0.00353889       0.49634456 </v>
   <v>      -0.31895661       0.33394680      -0.45422017 </v>
   <v>      -0.08279859      -0.41176048      -0.45151489 </v>
   <v>      -0.34139032      -0.42594198      -0.44878988 </v>
   <v>       0.08422812      -0.32819692      -0.41261020 </v>
   <v>      -0.40712406       0.16945296      -0.41435967 </v>
   <v>      -0.41873618      -0.32953449      -0.40869992 </v>
   <v>       0.42003745      -0.16367183       0.40557368 </v>
   <v>      -0.24367216      -0.49433660      -0.49189937 </v>
   <v>       0.40627289      -0.17727680      -0.45463268 </v>
  </varray>
 </structure>
 <varray name="primitive_index" >
  <v type="int" >        1 </v>
  <v type="int" >       50 </v>
  <v type="int" >       65 </v>
  <v type="int" >       70 </v>
  <v type="int" >       61 </v>
  <v type="int" >       49 </v>
  <v type="int" >       66 </v>
  <v type="int" >        5 </v>
  <v type="int" >       17 </v>
  <v type="int" >       16 </v>
  <v type="int" >       13 </v>
  <v type="int" >        6 </v>
  <v type="int" >        4 </v>
  <v type="int" >       18 </v>
  <v type="int" >        2 </v>
  <v type="int" >       29 </v>
  <v type="int" >       54 </v>
  <v type="int" >       64 </v>
  <v type="int" >       33 </v>
  <v type="int" >       62 </v>
  <v type="int" >       69 </v>
  <v type="int" >       71 </v>
  <v type="int" >       77 </v>
  <v type="int" >       22 </v>
  <v type="int" >       30 </v>
  <v type="int" >       32 </v>
  <v type="int" >       53 </v>
  <v type="int" >       52 </v>
  <v type="int" >       36 </v>
  <v type="int" >       48 </v>
  <v type="int" >       68 </v>
  <v type="int" >       57 </v>
  <v type="int" >       38 </v>
  <v type="int" >       37 </v>
  <v type="int" >       74 </v>
  <v type="int" >       60 </v>
  <v type="int" >       34 </v>
  <v type="int" >       55 </v>
  <v type="int" >       80 </v>
  <v type="int" >       45 </v>
  <v type="int" >       75 </v>
  <v type="int" >       67 </v>
  <v type="int" >       51 </v>
  <v type="int" >       78 </v>
  <v type="int" >       21 </v>
  <v type="int" >       20 </v>
  <v type="int" >       14 </v>
  <v type="int" >       15 </v>
  <v type="int" >       25 </v>
  <v type="int" >       28 </v>
  <v type="int" >        8 </v>
  <v type="int" >       23 </v>
  <v type="int" >       12 </v>
  <v type="int" >        7 </v>
  <v type="int" >       10 </v>
  <v type="int" >       19 </v>
  <v type="int" >        9 </v>
  <v type="int" >       11 </v>
  <v type="int" >        3 </v>
  <v type="int" >       40 </v>
  <v type="int" >       46 </v>
  <v type="int" >       59 </v>
  <v type="int" >       44 </v>
  <v type="int" >       72 </v>
  <v type="int" >       47 </v>
  <v type="int" >       63 </v>
  <v type="int" >       58 </v>
  <v type="int" >       39 </v>
  <v type="int" >       76 </v>
  <v type="int" >       42 </v>
  <v type="int" >       73 </v>
  <v type="int" >       26 </v>
  <v type="int" >       31 </v>
  <v type="int" >       27 </v>
  <v type="int" >       35 </v>
  <v type="int" >       41 </v>
  <v type="int" >       43 </v>
  <v type="int" >       56 </v>
  <v type="int" >       79 </v>
  <v type="int" >       24 </v>
 </varray>
 <kpoints>
  <generation param="Gamma">
   <v type="int" name="divisions">       3        3        1 </v>
   <v name="usershift">      0.00000000       0.00000000       0.00000000 </v>
   <v name="genvec1">      0.33333333       0.00000000       0.00000000 </v>
   <v name="genvec2">      0.00000000       0.33333333       0.00000000 </v>
   <v name="genvec3">      0.00000000       0.00000000       1.00000000 </v>
   <v name="shift">      0.00000000       0.00000000       0.00000000 </v>
  </generation>
  <varray name="kpointlist" >
   <v>       0.00000000       0.00000000       0.00000000 </v>
   <v>       0.33333333      -0.00000000       0.00000000 </v>
   <v>       0.00000000       0.33333333       0.00000000 </v>
   <v>       0.33333333       0.33333333       0.00000000 </v>
   <v>      -0.33333333       0.33333333       0.00000000 </v>
  </varray>
  <varray name="weights" >
   <v>       0.11111111 </v>
   <v>       0.22222222 </v>
   <v>       0.22222222 </v>
   <v>       0.22222222 </v>
   <v>       0.22222222 </v>
  </varray>
 </kpoints>
 <parameters>
  <separator name="general" >
   <i type="string" name="SYSTEM">unknown system</i>
   <i type="logical" name="LCOMPAT"> F  </i>
  </separator>
  <separator name="electronic" >
   <i type="string" name="PREC">anorma</i>
   <i name="ENMAX">    600.00000000</i>
   <i name="ENAUG">    644.87300000</i>
   <i name="EDIFF">      0.00000100</i>
   <i type="int" name="IALGO">    38</i>
   <i type="int" name="IWAVPR">    10</i>
   <i type="int" name="NBANDS">   384</i>
   <i name="NELECT">    640.00000000</i>
   <i type="int" name="TURBO">     0</i>
   <i type="int" name="IRESTART">     0</i>
   <i type="int" name="NREBOOT">     0</i>
   <i type="int" name="NMIN">     0</i>
   <i name="EREF">      0.00000000</i>
   <separator name="electronic smearing" >
    <i type="int" name="ISMEAR">     0</i>
    <i name="SIGMA">      0.05000000</i>
    <i name="KSPACING">      0.25000000</i>
    <i type="logical" name="KGAMMA"> T  </i>
   </separator>
   <separator name="electronic projectors" >
    <i type="logical" name="LREAL"> T  </i>
    <v name="ROPT">     -0.00025000     -0.00025000     -0.00025000</v>
    <i type="int" name="LMAXPAW">  -100</i>
    <i type="int" name="LMAXMIX">     2</i>
    <i type="logical" name="NLSPLINE"> F  </i>
   </separator>
   <separator name="electronic startup" >
    <i type="int" name="ISTART">     0</i>
    <i type="int" name="ICHARG">     2</i>
    <i type="int" name="INIWAV">     1</i>
   </separator>
   <separator name="electronic spin" >
    <i type="int" name="ISPIN">     1</i>
    <i type="logical" name="LNONCOLLINEAR"> F  </i>
    <v name="MAGMOM">      1.00000000      1.00000000      1.00000000      1.00000000      1.00000000      1.00000000      1.00000000      1.00000000      1.00000000      1.00000000      1.00000000      1.00000000      1.00000000      1.00000000      1.00000000      1.00000000      1.00000000      1.00000000      1.00000000      1.00000000
      1.00000000      1.00000000      1.00000000      1.00000000      1.00000000      1.00000000      1.00000000      1.00000000      1.00000000      1.00000000      1.00000000      1.00000000      1.00000000      1.00000000      1.00000000      1.00000000      1.00000000      1.00000000      1.00000000      1.00000000
      1.00000000      1.00000000      1.00000000      1.00000000      1.00000000      1.00000000      1.00000000      1.00000000      1.00000000      1.00000000      1.00000000      1.00000000      1.00000000      1.00000000      1.00000000      1.00000000      1.00000000      1.00000000      1.00000000      1.00000000
      1.00000000      1.00000000      1.00000000      1.00000000      1.00000000      1.00000000      1.00000000      1.00000000      1.00000000      1.00000000      1.00000000      1.00000000      1.00000000      1.00000000      1.00000000      1.00000000      1.00000000      1.00000000      1.00000000      1.00000000
</v>
    <i name="NUPDOWN">     -1.00000000</i>
    <i type="logical" name="LSORBIT"> F  </i>
    <v name="SAXIS">      0.00000000      0.00000000      1.00000000</v>
    <i type="logical" name="LSPIRAL"> F  </i>
    <v name="QSPIRAL">      0.00000000      0.00000000      0.00000000</v>
    <i type="logical" name="LZEROZ"> F  </i>
   </separator>
   <separator name="electronic exchange-correlation" >
    <i type="logical" name="LASPH"> F  </i>
    <i type="logical" name="LMETAGGA"> F  </i>
   </separator>
   <separator name="electronic convergence" >
    <i type="int" name="NELM">    60</i>
    <i type="int" name="NELMDL">    -5</i>
    <i type="int" name="NELMIN">     2</i>
    <i name="ENINI">    600.00000000</i>
    <separator name="electronic convergence detail" >
     <i type="logical" name="LDIAG"> T  </i>
     <i type="logical" name="LSUBROT"> F  </i>
     <i name="WEIMIN">      0.00000000</i>
     <i name="EBREAK">      0.00000000</i>
     <i name="DEPER">      0.30000000</i>
     <i type="int" name="NRMM">     4</i>
     <i name="TIME">      0.40000000</i>
    </separator>
   </separator>
   <separator name="electronic mixer" >
    <i name="AMIX">      0.40000000</i>
    <i name="BMIX">      1.00000000</i>
    <i name="AMIN">      0.10000000</i>
    <i name="AMIX_MAG">      1.60000000</i>
    <i name="BMIX_MAG">      1.00000000</i>
    <separator name="electronic mixer details" >
     <i type="int" name="IMIX">     4</i>
     <i type="logical" name="MIXFIRST"> F  </i>
     <i type="int" name="MAXMIX">   -45</i>
     <i name="WC">    100.00000000</i>
     <i type="int" name="INIMIX">     1</i>
     <i type="int" name="MIXPRE">     1</i>
     <i type="int" name="MREMOVE">     5</i>
    </separator>
   </separator>
   <separator name="electronic dipolcorrection" >
    <i type="logical" name="LDIPOL"> F  </i>
    <i type="logical" name="LMONO"> F  </i>
    <i type="int" name="IDIPOL">     0</i>
    <i name="EPSILON">      1.00000000</i>
    <v name="DIPOL">   -100.00000000   -100.00000000   -100.00000000</v>
    <i name="EFIELD">      0.00000000</i>
   </separator>
  </separator>
  <separator name="grids" >
   <i type="int" name="NGX">   108</i>
   <i type="int" name="NGY">   108</i>
   <i type="int" name="NGZ">   216</i>
   <i type="int" name="NGXF">   216</i>
   <i type="int" name="NGYF">   216</i>
   <i type="int" name="NGZF">   432</i>
   <i type="logical" name="ADDGRID"> T  </i>
  </separator>
  <separator name="ionic" >
   <i type="int" name="NSW">     1</i>
   <i type="int" name="IBRION">    -1</i>
   <i type="int" name="MDALGO">     0</i>
   <i type="int" name="ISIF">     2</i>
   <i name="PSTRESS">      0.00000000</i>
   <i name="EDIFFG">     -0.01000000</i>
   <i type="int" name="NFREE">     0</i>
   <i name="POTIM">      1.00000000</i>
   <i name="SMASS">     -3.00000000</i>
   <i name="SCALEE">      1.00000000</i>
  </separator>
  <separator name="ionic md" >
   <i name="TEBEG">      0.00010000</i>
   <i name="TEEND">      0.00010000</i>
   <i type="int" name="NBLOCK">     1</i>
   <i type="int" name="KBLOCK">     1</i>
   <i type="int" name="NPACO">   256</i>
   <i name="APACO">     16.00000000</i>
  </separator>
  <separator name="symmetry" >
   <i type="int" name="ISYM">     2</i>
   <i name="SYMPREC">      0.00001000</i>
  </separator>
  <separator name="dos" >
   <i type="int" name="LORBIT">     0</i>
   <v name="RWIGS">     -1.00000000     -1.00000000     -1.00000000</v>
   <i type="int" name="NEDOS">   301</i>
   <i name="EMIN">     10.00000000</i>
   <i name="EMAX">    -10.00000000</i>
   <i name="EFERMI">      0.00000000</i>
  </separator>
  <separator name="writing" >
   <i type="int" name="NWRITE">     2</i>
   <i type="logical" name="LWAVE"> F  </i>
   <i type="logical" name="LDOWNSAMPLE"> F  </i>
   <i type="logical" name="LCHARG"> F  </i>
   <i type="logical" name="LPARD"> F  </i>
   <i type="logical" name="LVTOT"> F  </i>
   <i type="logical" name="LVHAR"> F  </i>
   <i type="logical" name="LELF"> F  </i>
   <i type="logical" name="LOPTICS"> F  </i>
   <v name="STM">      0.00000000      0.00000000      0.00000000      0.00000000      0.00000000      0.00000000      0.00000000</v>
  </separator>
  <separator name="performance" >
   <i type="int" name="NPAR">     4</i>
   <i type="int" name="NSIM">     4</i>
   <i type="int" name="NBLK">    -1</i>
   <i type="logical" name="LPLANE"> T  </i>
   <i type="logical" name="LSCALAPACK"> F  </i>
   <i type="logical" name="LSCAAWARE"> F  </i>
   <i type="logical" name="LSCALU"> F  </i>
   <i type="logical" name="LASYNC"> F  </i>
   <i type="logical" name="LORBITALREAL"> F  </i>
  </separator>
  <separator name="miscellaneous" >
   <i type="int" name="IDIOT">     3</i>
   <i type="int" name="ISPECIAL">     0</i>
   <i type="logical" name="LMUSIC"> F  </i>
   <v name="POMASS">     44.95600000     18.99800000     12.01100000</v>
   <v name="DARWINR">      0.00000000      0.00000000      0.00000000</v>
   <v name="DARWINV">      1.00000000      1.00000000      1.00000000</v>
   <i type="logical" name="LCORR"> T  </i>
  </separator>
  <i type="logical" name="GGA_COMPAT"> T  </i>
  <i type="logical" name="LBERRY"> F  </i>
  <i type="int" name="ICORELEVEL">     0</i>
  <i type="logical" name="LDAU"> F  </i>
  <i type="int" name="I_CONSTRAINED_M">     0</i>
  <separator name="electronic exchange-correlation" >
   <i type="string" name="GGA">--</i>
   <i type="int" name="VOSKOWN">     0</i>
   <i type="logical" name="LHFCALC"> F  </i>
   <i type="string" name="PRECFOCK"></i>
   <i type="logical" name="LSYMGRAD"> F  </i>
   <i type="logical" name="LHFONE"> F  </i>
   <i type="logical" name="LRHFCALC"> F  </i>
   <i type="logical" name="LTHOMAS"> F  </i>
   <i type="logical" name="LMODELHF"> F  </i>
   <i name="ENCUT4O">     -1.00000000</i>
   <i type="int" name="EXXOEP">     0</i>
   <i type="int" name="FOURORBIT">     0</i>
   <i name="AEXX">      0.00000000</i>
   <i name="HFALPHA">      0.00000000</i>
   <i name="MCALPHA">      0.00000000</i>
   <i name="ALDAX">      1.00000000</i>
   <i name="AGGAX">      1.00000000</i>
   <i name="ALDAC">      1.00000000</i>
   <i name="AGGAC">      1.00000000</i>
   <i type="int" name="NKREDX">     1</i>
   <i type="int" name="NKREDY">     1</i>
   <i type="int" name="NKREDZ">     1</i>
   <i type="logical" name="SHIFTRED"> F  </i>
   <i type="logical" name="ODDONLY"> F  </i>
   <i type="logical" name="EVENONLY"> F  </i>
   <i type="int" name="LMAXFOCK">     0</i>
   <i type="int" name="NMAXFOCKAE">     0</i>
   <i type="logical" name="LFOCKAEDFT"> F  </i>
   <i name="HFSCREEN">      0.00000000</i>
   <i name="HFSCREENC">      0.00000000</i>
   <i type="int" name="NBANDSGWLOW">     0</i>
  </separator>
  <separator name="vdW DFT" >
   <i type="logical" name="LUSE_VDW"> F  </i>
   <i name="Zab_VDW">     -0.84910000</i>
   <i name="PARAM1">      0.12340000</i>
   <i name="PARAM2">      1.00000000</i>
   <i name="PARAM3">      0.00000000</i>
  </separator>
  <separator name="model GW" >
   <i type="int" name="MODEL_GW">     0</i>
   <i name="MODEL_EPS0">     30.03447877</i>
   <i name="MODEL_ALPHA">      1.00000000</i>
  </separator>
  <separator name="linear response parameters" >
   <i type="logical" name="LEPSILON"> F  </i>
   <i type="logical" name="LRPA"> F  </i>
   <i type="logical" name="LNABLA"> F  </i>
   <i type="logical" name="LVEL"> F  </i>
   <i type="int" name="KINTER">     0</i>
   <i name="CSHIFT">      0.10000000</i>
   <i name="OMEGAMAX">     -1.00000000</i>
   <i name="DEG_THRESHOLD">      0.00200000</i>
   <i name="RTIME">     -0.10000000</i>
   <i name="WPLASMAI">      0.00000000</i>
   <v name="DFIELD">      0.00000000      0.00000000      0.00000000</v>
   <v name="WPLASMA">      0.00000000      0.00000000      0.00000000      0.00000000      0.00000000      0.00000000      0.00000000      0.00000000      0.00000000</v>
  </separator>
  <separator name="orbital magnetization" >
   <i type="logical" name="NUCIND"> F  </i>
   <v name="MAGPOS">      0.00000000      0.00000000      0.00000000</v>
   <i type="logical" name="LNICSALL"> T  </i>
   <i type="logical" name="ORBITALMAG"> F  </i>
   <i type="logical" name="LMAGBLOCH"> F  </i>
   <i type="logical" name="LCHIMAG"> F  </i>
   <i type="logical" name="LGAUGE"> T  </i>
   <i type="int" name="MAGATOM">     0</i>
   <v name="MAGDIPOL">      0.00000000      0.00000000      0.00000000</v>
   <v name="AVECCONST">      0.00000000      0.00000000      0.00000000</v>
  </separator>
  <separator name="response functions" >
   <i type="logical" name="LADDER"> F  </i>
   <i type="logical" name="LRPAFORCE"> F  </i>
   <i type="logical" name="LFXC"> F  </i>
   <i type="logical" name="LHARTREE"> T  </i>
   <i type="int" name="IBSE">     0</i>
   <v type="int" name="KPOINT">    -1     0     0     0</v>
   <i type="logical" name="LTCTE"> F  </i>
   <i type="logical" name="LTETE"> F  </i>
   <i type="logical" name="LTRIPLET"> F  </i>
   <i type="logical" name="LFXCEPS"> F  </i>
   <i type="logical" name="LFXHEG"> F  </i>
   <i type="int" name="NATURALO">     2</i>
   <i type="logical" name="L2ORDER"> F  </i>
   <i type="logical" name="LMP2LT"> F  </i>
   <i type="logical" name="LUSEW"> F  </i>
   <i name="ENCUTGW">     -2.00000000</i>
   <i name="ENCUTGWSOFT">     -2.00000000</i>
   <i name="ENCUTLF">     -1.00000000</i>
   <i type="int" name="LMAXMP2">    -1</i>
   <i name="SCISSOR">      0.00000000</i>
   <i type="int" name="NOMEGA">     0</i>
   <i type="int" name="NOMEGAR">     0</i>
   <i type="int" name="NBANDSGW">    -1</i>
   <i type="int" name="NBANDSO">    -1</i>
   <i type="int" name="NBANDSV">    -1</i>
   <i type="int" name="NELM">     1</i>
   <i type="int" name="NELMHF">     1</i>
   <i type="int" name="DIM">     3</i>
   <i type="int" name="ANTIRES">     0</i>
   <i name="OMEGAMAX">    -30.00000000</i>
   <i name="OMEGAMIN">    -30.00000000</i>
   <i name="OMEGATL">   -200.00000000</i>
   <i type="int" name="OMEGAGRID">   140</i>
   <i name="CSHIFT">     -0.10000000</i>
   <i type="logical" name="SELFENERGY"> F  </i>
   <i type="logical" name="LSPECTRAL"> F  </i>
   <i type="logical" name="LSPECTRALGW"> F  </i>
   <i type="logical" name="LSINGLES"> F  </i>
   <i type="logical" name="LFERMIGW"> F  </i>
   <i type="logical" name="ODDONLYGW"> F  </i>
   <i type="logical" name="EVENONLYGW"> F  </i>
   <i type="int" name="NKREDLFX">     1</i>
   <i type="int" name="NKREDLFY">     1</i>
   <i type="int" name="NKREDLFZ">     1</i>
   <i type="int" name="MAXMEM">  2800</i>
   <i type="int" name="TELESCOPE">     0</i>
   <i type="int" name="TAUPAR">     1</i>
   <i type="int" name="OMEGAPAR">    -1</i>
   <i name="LAMBDA">      1.00000000</i>
  </separator>
  <separator name="External order field" >
   <i name="OFIELD_KAPPA">      0.00000000</i>
   <v name="OFIELD_K">      0.00000000      0.00000000      0.00000000</v>
   <i name="OFIELD_Q6_NEAR">      0.00000000</i>
   <i name="OFIELD_Q6_FAR">      0.00000000</i>
   <i name="OFIELD_A">      0.00000000</i>
  </separator>
 </parameters>
 <atominfo>
  <atoms>      80 </atoms>
  <types>       3 </types>
  <array name="atoms" >
   <dimension dim="1">ion</dimension>
   <field type="string">element</field>
   <field type="int">atomtype</field>
   <set>
    <rc><c>Sc</c><c>   1</c></rc>
    <rc><c>Sc</c><c>   1</c></rc>
    <rc><c>Sc</c><c>   1</c></rc>
    <rc><c>Sc</c><c>   1</c></rc>
    <rc><c>Sc</c><c>   1</c></rc>
    <rc><c>Sc</c><c>   1</c></rc>
    <rc><c>Sc</c><c>   1</c></rc>
    <rc><c>Sc</c><c>   1</c></rc>
    <rc><c>Sc</c><c>   1</c></rc>
    <rc><c>Sc</c><c>   1</c></rc>
    <rc><c>Sc</c><c>   1</c></rc>
    <rc><c>Sc</c><c>   1</c></rc>
    <rc><c>Sc</c><c>   1</c></rc>
    <rc><c>Sc</c><c>   1</c></rc>
    <rc><c>Sc</c><c>   1</c></rc>
    <rc><c>Sc</c><c>   1</c></rc>
    <rc><c>Sc</c><c>   1</c></rc>
    <rc><c>Sc</c><c>   1</c></rc>
    <rc><c>Sc</c><c>   1</c></rc>
    <rc><c>Sc</c><c>   1</c></rc>
    <rc><c>Sc</c><c>   1</c></rc>
    <rc><c>Sc</c><c>   1</c></rc>
    <rc><c>Sc</c><c>   1</c></rc>
    <rc><c>Sc</c><c>   1</c></rc>
    <rc><c>Sc</c><c>   1</c></rc>
    <rc><c>Sc</c><c>   1</c></rc>
    <rc><c>Sc</c><c>   1</c></rc>
    <rc><c>Sc</c><c>   1</c></rc>
    <rc><c>Sc</c><c>   1</c></rc>
    <rc><c>Sc</c><c>   1</c></rc>
    <rc><c>Sc</c><c>   1</c></rc>
    <rc><c>Sc</c><c>   1</c></rc>
    <rc><c>F </c><c>   2</c></rc>
    <rc><c>F </c><c>   2</c></rc>
    <rc><c>F </c><c>   2</c></rc>
    <rc><c>F </c><c>   2</c></rc>
    <rc><c>F </c><c>   2</c></rc>
    <rc><c>F </c><c>   2</c></rc>
    <rc><c>F </c><c>   2</c></rc>
    <rc><c>F </c><c>   2</c></rc>
    <rc><c>F </c><c>   2</c></rc>
    <rc><c>F </c><c>   2</c></rc>
    <rc><c>F </c><c>   2</c></rc>
    <rc><c>F </c><c>   2</c></rc>
    <rc><c>F </c><c>   2</c></rc>
    <rc><c>F </c><c>   2</c></rc>
    <rc><c>F </c><c>   2</c></rc>
    <rc><c>F </c><c>   2</c></rc>
    <rc><c>F </c><c>   2</c></rc>
    <rc><c>F </c><c>   2</c></rc>
    <rc><c>F </c><c>   2</c></rc>
    <rc><c>F </c><c>   2</c></rc>
    <rc><c>F </c><c>   2</c></rc>
    <rc><c>F </c><c>   2</c></rc>
    <rc><c>F </c><c>   2</c></rc>
    <rc><c>F </c><c>   2</c></rc>
    <rc><c>F </c><c>   2</c></rc>
    <rc><c>F </c><c>   2</c></rc>
    <rc><c>F </c><c>   2</c></rc>
    <rc><c>F </c><c>   2</c></rc>
    <rc><c>F </c><c>   2</c></rc>
    <rc><c>F </c><c>   2</c></rc>
    <rc><c>F </c><c>   2</c></rc>
    <rc><c>F </c><c>   2</c></rc>
    <rc><c>C </c><c>   3</c></rc>
    <rc><c>C </c><c>   3</c></rc>
    <rc><c>C </c><c>   3</c></rc>
    <rc><c>C </c><c>   3</c></rc>
    <rc><c>C </c><c>   3</c></rc>
    <rc><c>C </c><c>   3</c></rc>
    <rc><c>C </c><c>   3</c></rc>
    <rc><c>C </c><c>   3</c></rc>
    <rc><c>C </c><c>   3</c></rc>
    <rc><c>C </c><c>   3</c></rc>
    <rc><c>C </c><c>   3</c></rc>
    <rc><c>C </c><c>   3</c></rc>
    <rc><c>C </c><c>   3</c></rc>
    <rc><c>C </c><c>   3</c></rc>
    <rc><c>C </c><c>   3</c></rc>
    <rc><c>C </c><c>   3</c></rc>
   </set>
  </array>
  <array name="atomtypes" >
   <dimension dim="1">type</dimension>
   <field type="int">atomspertype</field>
   <field type="string">element</field>
   <field>mass</field>
   <field>valence</field>
   <field type="string">pseudopotential</field>
   <set>
    <rc><c>  32</c><c>Sc</c><c>     44.95600000</c><c>     11.00000000</c><c>  PAW_PBE Sc_sv 07Sep2000               </c></rc>
    <rc><c>  32</c><c>F </c><c>     18.99800000</c><c>      7.00000000</c><c>  PAW_PBE F 08Apr2002                   </c></rc>
    <rc><c>  16</c><c>C </c><c>     12.01100000</c><c>      4.00000000</c><c>  PAW_PBE C 08Apr2002                   </c></rc>
   </set>
  </array>
 </atominfo>
 <structure name="initialpos" >
  <crystal>
   <varray name="basis" >
    <v>      13.12862340       0.00000000       0.00000000 </v>
    <v>      -6.56431170      11.36972138       0.00000000 </v>
    <v>       0.00000000       0.00000000      26.82809424 </v>
   </varray>
   <i name="volume">   4004.59716953 </i>
   <varray name="rec_basis" >
    <v>       0.07616945       0.04397645       0.00000000 </v>
    <v>       0.00000000       0.08795290       0.00000000 </v>
    <v>       0.00000000       0.00000000       0.03727436 </v>
   </varray>
  </crystal>
  <varray name="positions" >
   <v>       0.08502658       0.16256127       0.44843450 </v>
   <v>       0.08784873       0.42008614       0.45027014 </v>
   <v>       0.07716876       0.65869907       0.45062972 </v>
   <v>       0.08077728       0.90756844       0.45425826 </v>
   <v>       0.31766253       0.16335532       0.45125127 </v>
   <v>       0.33969094       0.41255385       0.45307593 </v>
   <v>       0.33607190       0.66752953       0.45274757 </v>
   <v>       0.34769287       0.92318112       0.44874425 </v>
   <v>       0.57206758       0.16423316       0.44981850 </v>
   <v>       0.59131745       0.42328933       0.45460043 </v>
   <v>       0.58649968       0.66954995       0.45139996 </v>
   <v>       0.58027416       0.91078736       0.45342403 </v>
   <v>       0.83625023       0.16329222       0.45589117 </v>
   <v>       0.84362107       0.41284945       0.45251275 </v>
   <v>       0.83871125       0.66761943       0.46120405 </v>
   <v>       0.83347884       0.91549728       0.45374270 </v>
   <v>       0.15511066       0.08436797       0.54545064 </v>
   <v>       0.16052088       0.33635363       0.54885396 </v>
   <v>       0.16132712       0.58709860       0.54750937 </v>
   <v>       0.16561300       0.83597299       0.54702132 </v>
   <v>       0.41535824       0.10102106       0.54664478 </v>
   <v>       0.41729182       0.33209781       0.54303581 </v>
   <v>       0.41671389       0.58678804       0.54767157 </v>
   <v>       0.40627289       0.82272320       0.54536732 </v>
   <v>       0.66816158       0.08715700       0.54364141 </v>
   <v>       0.68104339       0.33394680       0.54577983 </v>
   <v>       0.65860968       0.57405802       0.55121012 </v>
   <v>       0.66507355       0.83413654       0.54694328 </v>
   <v>       0.90773134       0.07584722       0.54955582 </v>
   <v>       0.91979924       0.32958714       0.54635941 </v>
   <v>       0.91720141       0.58823952       0.54848511 </v>
   <v>       0.90587980       0.82670852       0.55376130 </v>
   <v>       0.08602347       0.17264037       0.59215724 </v>
   <v>       0.09121586       0.42067058       0.59618318 </v>
   <v>       0.08422812       0.67180308       0.58738980 </v>
   <v>       0.07975842       0.93230089       0.59842243 </v>
   <v>       0.33979992       0.19280305       0.59944038 </v>
   <v>       0.32774213       0.43052776       0.59312927 </v>
   <v>       0.33013494       0.66674697       0.59226247 </v>
   <v>       0.31904769       0.91055234       0.58808143 </v>
   <v>       0.59287594       0.16945296       0.58564033 </v>
   <v>       0.59608228       0.41203012       0.58797938 </v>
   <v>       0.58126382       0.67046551       0.59130008 </v>
   <v>       0.57902541       0.89730194       0.58434565 </v>
   <v>       0.81659614       0.15143200       0.59454321 </v>
   <v>       0.86372939       0.42960221       0.59057359 </v>
   <v>       0.84654005       0.66687441       0.59413684 </v>
   <v>       0.83088195       0.91940820       0.59146031 </v>
   <v>       0.16550099       0.07303315       0.39847100 </v>
   <v>       0.17431551       0.32454765       0.40638969 </v>
   <v>       0.15745160       0.58541850       0.40436523 </v>
   <v>       0.16684701       0.83888971       0.40848499 </v>
   <v>       0.41154603       0.09064067       0.41221281 </v>
   <v>       0.40697902       0.33055137       0.41152744 </v>
   <v>       0.43636968       0.58014318       0.40760215 </v>
   <v>       0.42003745       0.83632817       0.40557368 </v>
   <v>       0.66998179       0.08059023       0.40450967 </v>
   <v>       0.67118756       0.34103585       0.41263581 </v>
   <v>       0.67172232       0.59347176       0.40786748 </v>
   <v>       0.66272518       0.82570653       0.41222838 </v>
   <v>       0.90311419       0.07864099       0.40700242 </v>
   <v>       0.93576018       0.33933082       0.40823783 </v>
   <v>       0.92025018       0.57827306       0.41171705 </v>
   <v>       0.91792461       0.83229457       0.41591000 </v>
   <v>       0.00112439       0.00850924       0.50071384 </v>
   <v>       0.00211879       0.24756842       0.50080198 </v>
   <v>       0.00144617       0.50085552       0.49924337 </v>
   <v>       0.00522376       0.75638342       0.50268255 </v>
   <v>       0.24592868       0.00085005       0.49721442 </v>
   <v>       0.24758389       0.24966321       0.49871116 </v>
   <v>       0.24179633       0.49322825       0.49614267 </v>
   <v>       0.25570576       0.75614015       0.49503809 </v>
   <v>       0.49983452       0.99646111       0.49634456 </v>
   <v>       0.50081103       0.25270169       0.49982850 </v>
   <v>       0.50566976       0.49563602       0.50330699 </v>
   <v>       0.49035924       0.74452629       0.49748730 </v>
   <v>       0.74480788       0.99946192       0.50046955 </v>
   <v>       0.74905596       0.25620439       0.49943651 </v>
   <v>       0.75632784       0.50566340       0.50810063 </v>
   <v>       0.75290746       0.74683756       0.50429269 </v>
  </varray>
  <varray name="velocities" >
   <v>       0.00000000       0.00000000       0.00000000 </v>
   <v>       0.00000000       0.00000000       0.00000000 </v>
   <v>       0.00000000       0.00000000       0.00000000 </v>
   <v>       0.00000000       0.00000000       0.00000000 </v>
   <v>       0.00000000       0.00000000       0.00000000 </v>
   <v>       0.00000000       0.00000000       0.00000000 </v>
   <v>       0.00000000       0.00000000       0.00000000 </v>
   <v>       0.00000000       0.00000000       0.00000000 </v>
   <v>       0.00000000       0.00000000       0.00000000 </v>
   <v>       0.00000000       0.00000000       0.00000000 </v>
   <v>       0.00000000       0.00000000       0.00000000 </v>
   <v>       0.00000000       0.00000000       0.00000000 </v>
   <v>       0.00000000       0.00000000       0.00000000 </v>
   <v>       0.00000000       0.00000000       0.00000000 </v>
   <v>       0.00000000       0.00000000       0.00000000 </v>
   <v>       0.00000000       0.00000000       0.00000000 </v>
   <v>       0.00000000       0.00000000       0.00000000 </v>
   <v>       0.00000000       0.00000000       0.00000000 </v>
   <v>       0.00000000       0.00000000       0.00000000 </v>
   <v>       0.00000000       0.00000000       0.00000000 </v>
   <v>       0.00000000       0.00000000       0.00000000 </v>
   <v>       0.00000000       0.00000000       0.00000000 </v>
   <v>       0.00000000       0.00000000       0.00000000 </v>
   <v>       0.00000000       0.00000000       0.00000000 </v>
   <v>       0.00000000       0.00000000       0.00000000 </v>
   <v>       0.00000000       0.00000000       0.00000000 </v>
   <v>       0.00000000       0.00000000       0.00000000 </v>
   <v>       0.00000000       0.00000000       0.00000000 </v>
   <v>       0.00000000       0.00000000       0.00000000 </v>
   <v>       0.00000000       0.00000000       0.00000000 </v>
   <v>       0.00000000       0.00000000       0.00000000 </v>
   <v>       0.00000000       0.00000000       0.00000000 </v>
   <v>       0.00000000       0.00000000       0.00000000 </v>
   <v>       0.00000000       0.00000000       0.00000000 </v>
   <v>       0.00000000       0.00000000       0.00000000 </v>
   <v>       0.00000000       0.00000000       0.00000000 </v>
   <v>       0.00000000       0.00000000       0.00000000 </v>
   <v>       0.00000000       0.00000000       0.00000000 </v>
   <v>       0.00000000       0.00000000       0.00000000 </v>
   <v>       0.00000000       0.00000000       0.00000000 </v>
   <v>       0.00000000       0.00000000       0.00000000 </v>
   <v>       0.00000000       0.00000000       0.00000000 </v>
   <v>       0.00000000       0.00000000       0.00000000 </v>
   <v>       0.00000000       0.00000000       0.00000000 </v>
   <v>       0.00000000       0.00000000       0.00000000 </v>
   <v>       0.00000000       0.00000000       0.00000000 </v>
   <v>       0.00000000       0.00000000       0.00000000 </v>
   <v>       0.00000000       0.00000000       0.00000000 </v>
   <v>       0.00000000       0.00000000       0.00000000 </v>
   <v>       0.00000000       0.00000000       0.00000000 </v>
   <v>       0.00000000       0.00000000       0.00000000 </v>
   <v>       0.00000000       0.00000000       0.00000000 </v>
   <v>       0.00000000       0.00000000       0.00000000 </v>
   <v>       0.00000000       0.00000000       0.00000000 </v>
   <v>       0.00000000       0.00000000       0.00000000 </v>
   <v>       0.00000000       0.00000000       0.00000000 </v>
   <v>       0.00000000       0.00000000       0.00000000 </v>
   <v>       0.00000000       0.00000000       0.00000000 </v>
   <v>       0.00000000       0.00000000       0.00000000 </v>
   <v>       0.00000000       0.00000000       0.00000000 </v>
   <v>       0.00000000       0.00000000       0.00000000 </v>
   <v>       0.00000000       0.00000000       0.00000000 </v>
   <v>       0.00000000       0.00000000       0.00000000 </v>
   <v>       0.00000000       0.00000000       0.00000000 </v>
   <v>       0.00000000       0.00000000       0.00000000 </v>
   <v>       0.00000000       0.00000000       0.00000000 </v>
   <v>       0.00000000       0.00000000       0.00000000 </v>
   <v>       0.00000000       0.00000000       0.00000000 </v>
   <v>       0.00000000       0.00000000       0.00000000 </v>
   <v>       0.00000000       0.00000000       0.00000000 </v>
   <v>       0.00000000       0.00000000       0.00000000 </v>
   <v>       0.00000000       0.00000000       0.00000000 </v>
   <v>       0.00000000       0.00000000       0.00000000 </v>
   <v>       0.00000000       0.00000000       0.00000000 </v>
   <v>       0.00000000       0.00000000       0.00000000 </v>
   <v>       0.00000000       0.00000000       0.00000000 </v>
   <v>       0.00000000       0.00000000       0.00000000 </v>
   <v>       0.00000000       0.00000000       0.00000000 </v>
   <v>       0.00000000       0.00000000       0.00000000 </v>
   <v>       0.00000000       0.00000000       0.00000000 </v>
  </varray>
 </structure>
 <calculation>
  <scstep>
   <time name="dav">   46.63   46.65</time>
   <time name="total">   47.46   47.49</time>
   <energy>
    <i name="alphaZ">    871.83850952 </i>
    <i name="ewald"> 285752.98662194 </i>
    <i name="hartreedc">-340110.21595703 </i>
    <i name="XCdc">   3042.80998600 </i>
    <i name="pawpsdc">  50525.51240023 </i>
    <i name="pawaedc"> -50422.77561733 </i>
    <i name="eentropy">     -0.07814366 </i>
    <i name="bandstr">   -193.62504214 </i>
    <i name="atom">  64207.43592568 </i>
    <i name="e_fr_energy">  13673.88868322 </i>
    <i name="e_wo_entrp">  13673.96682688 </i>
    <i name="e_0_energy">  13673.92775505 </i>
   </energy>
  </scstep>
  <scstep>
   <time name="dav">   49.67   49.69</time>
   <time name="total">   49.67   49.69</time>
   <energy>
    <i name="e_fr_energy">   2497.77535285 </i>
    <i name="e_wo_entrp">   2497.82332533 </i>
    <i name="e_0_energy">   2497.79933909 </i>
   </energy>
  </scstep>
  <scstep>
   <time name="dav">   67.69   67.70</time>
   <time name="total">   67.70   67.70</time>
   <energy>
    <i name="e_fr_energy">   -373.99630722 </i>
    <i name="e_wo_entrp">   -373.99630722 </i>
    <i name="e_0_energy">   -373.99630722 </i>
   </energy>
  </scstep>
  <scstep>
   <time name="dav">   61.59   61.62</time>
   <time name="total">   61.59   61.62</time>
   <energy>
    <i name="e_fr_energy">   -737.73319774 </i>
    <i name="e_wo_entrp">   -737.73319774 </i>
    <i name="e_0_energy">   -737.73319774 </i>
   </energy>
  </scstep>
  <scstep>
   <time name="dav">   61.82   61.83</time>
   <time name="total">   65.42   65.43</time>
   <energy>
    <i name="e_fr_energy">   -752.47315034 </i>
    <i name="e_wo_entrp">   -752.47315034 </i>
    <i name="e_0_energy">   -752.47315034 </i>
   </energy>
  </scstep>
  <scstep>
   <time name="dav">   58.95   58.95</time>
   <time name="total">   63.43   63.44</time>
   <energy>
    <i name="e_fr_energy">   -597.10021911 </i>
    <i name="e_wo_entrp">   -597.10021911 </i>
    <i name="e_0_energy">   -597.10021911 </i>
   </energy>
  </scstep>
  <scstep>
   <time name="dav">   60.54   60.55</time>
   <time name="total">   65.03   65.05</time>
   <energy>
    <i name="e_fr_energy">   -597.32007850 </i>
    <i name="e_wo_entrp">   -597.32007850 </i>
    <i name="e_0_energy">   -597.32007850 </i>
   </energy>
  </scstep>
  <scstep>
   <time name="dav">   57.48   57.49</time>
   <time name="total">   61.98   62.00</time>
   <energy>
    <i name="e_fr_energy">   -595.89512227 </i>
    <i name="e_wo_entrp">   -595.89512227 </i>
    <i name="e_0_energy">   -595.89512227 </i>
   </energy>
  </scstep>
  <scstep>
   <time name="dav">   56.59   56.59</time>
   <time name="total">   61.03   61.04</time>
   <energy>
    <i name="e_fr_energy">   -595.38959723 </i>
    <i name="e_wo_entrp">   -595.38959723 </i>
    <i name="e_0_energy">   -595.38959723 </i>
   </energy>
  </scstep>
  <scstep>
   <time name="dav">   60.09   60.10</time>
   <time name="total">   64.54   64.56</time>
   <energy>
    <i name="e_fr_energy">   -595.35634296 </i>
    <i name="e_wo_entrp">   -595.35634296 </i>
    <i name="e_0_energy">   -595.35634296 </i>
   </energy>
  </scstep>
  <scstep>
   <time name="dav">   57.00   57.00</time>
   <time name="total">   61.47   61.48</time>
   <energy>
    <i name="e_fr_energy">   -595.24630809 </i>
    <i name="e_wo_entrp">   -595.24630809 </i>
    <i name="e_0_energy">   -595.24630809 </i>
   </energy>
  </scstep>
  <scstep>
   <time name="dav">   61.74   61.74</time>
   <time name="total">   66.22   66.25</time>
   <energy>
    <i name="e_fr_energy">   -595.22343952 </i>
    <i name="e_wo_entrp">   -595.22343952 </i>
    <i name="e_0_energy">   -595.22343952 </i>
   </energy>
  </scstep>
  <scstep>
   <time name="dav">   59.08   59.08</time>
   <time name="total">   63.51   63.53</time>
   <energy>
    <i name="e_fr_energy">   -595.21671983 </i>
    <i name="e_wo_entrp">   -595.21671983 </i>
    <i name="e_0_energy">   -595.21671983 </i>
   </energy>
  </scstep>
  <scstep>
   <time name="dav">   58.34   58.34</time>
   <time name="total">   62.71   62.73</time>
   <energy>
    <i name="e_fr_energy">   -595.21494429 </i>
    <i name="e_wo_entrp">   -595.21494429 </i>
    <i name="e_0_energy">   -595.21494429 </i>
   </energy>
  </scstep>
  <scstep>
   <time name="dav">   60.23   60.24</time>
   <time name="total">   64.69   64.71</time>
   <energy>
    <i name="e_fr_energy">   -595.22054429 </i>
    <i name="e_wo_entrp">   -595.22054429 </i>
    <i name="e_0_energy">   -595.22054429 </i>
   </energy>
  </scstep>
  <scstep>
   <time name="dav">   57.45   57.45</time>
   <time name="total">   61.96   61.97</time>
   <energy>
    <i name="e_fr_energy">   -595.22412089 </i>
    <i name="e_wo_entrp">   -595.22412089 </i>
    <i name="e_0_energy">   -595.22412089 </i>
   </energy>
  </scstep>
  <scstep>
   <time name="dav">   59.36   59.36</time>
   <time name="total">   63.88   63.89</time>
   <energy>
    <i name="e_fr_energy">   -595.22916309 </i>
    <i name="e_wo_entrp">   -595.22916309 </i>
    <i name="e_0_energy">   -595.22916309 </i>
   </energy>
  </scstep>
  <scstep>
   <time name="dav">   55.67   55.68</time>
   <time name="total">   60.13   60.14</time>
   <energy>
    <i name="e_fr_energy">   -595.23196975 </i>
    <i name="e_wo_entrp">   -595.23196975 </i>
    <i name="e_0_energy">   -595.23196975 </i>
   </energy>
  </scstep>
  <scstep>
   <time name="dav">   59.55   59.55</time>
   <time name="total">   64.08   64.11</time>
   <energy>
    <i name="e_fr_energy">   -595.23352425 </i>
    <i name="e_wo_entrp">   -595.23352425 </i>
    <i name="e_0_energy">   -595.23352425 </i>
   </energy>
  </scstep>
  <scstep>
   <time name="dav">   53.54   53.54</time>
   <time name="total">   58.01   58.03</time>
   <energy>
    <i name="e_fr_energy">   -595.23628235 </i>
    <i name="e_wo_entrp">   -595.23628235 </i>
    <i name="e_0_energy">   -595.23628235 </i>
   </energy>
  </scstep>
  <scstep>
   <time name="dav">   46.51   46.51</time>
   <time name="total">   51.00   51.00</time>
   <energy>
    <i name="e_fr_energy">   -595.23836052 </i>
    <i name="e_wo_entrp">   -595.23836052 </i>
    <i name="e_0_energy">   -595.23836052 </i>
   </energy>
  </scstep>
  <scstep>
   <time name="dav">   51.15   51.16</time>
   <time name="total">   55.58   55.60</time>
   <energy>
    <i name="e_fr_energy">   -595.23931397 </i>
    <i name="e_wo_entrp">   -595.23931397 </i>
    <i name="e_0_energy">   -595.23931397 </i>
   </energy>
  </scstep>
  <scstep>
   <time name="dav">   50.43   50.43</time>
   <time name="total">   54.78   54.79</time>
   <energy>
    <i name="e_fr_energy">   -595.23963240 </i>
    <i name="e_wo_entrp">   -595.23963240 </i>
    <i name="e_0_energy">   -595.23963240 </i>
   </energy>
  </scstep>
  <scstep>
   <time name="dav">   49.03   49.03</time>
   <time name="total">   53.53   53.54</time>
   <energy>
    <i name="e_fr_energy">   -595.23992410 </i>
    <i name="e_wo_entrp">   -595.23992410 </i>
    <i name="e_0_energy">   -595.23992410 </i>
   </energy>
  </scstep>
  <scstep>
   <time name="dav">   42.15   42.16</time>
   <time name="total">   46.67   46.68</time>
   <energy>
    <i name="e_fr_energy">   -595.24006946 </i>
    <i name="e_wo_entrp">   -595.24006946 </i>
    <i name="e_0_energy">   -595.24006946 </i>
   </energy>
  </scstep>
  <scstep>
   <time name="dav">   34.37   34.37</time>
   <time name="total">   38.81   38.82</time>
   <energy>
    <i name="e_fr_energy">   -595.24011945 </i>
    <i name="e_wo_entrp">   -595.24011945 </i>
    <i name="e_0_energy">   -595.24011945 </i>
   </energy>
  </scstep>
  <scstep>
   <time name="dav">   33.56   33.56</time>
   <time name="total">   38.06   38.07</time>
   <energy>
    <i name="e_fr_energy">   -595.24014700 </i>
    <i name="e_wo_entrp">   -595.24014700 </i>
    <i name="e_0_energy">   -595.24014700 </i>
   </energy>
  </scstep>
  <scstep>
   <time name="dav">   33.88   33.88</time>
   <time name="total">   38.39   38.40</time>
   <energy>
    <i name="e_fr_energy">   -595.24016566 </i>
    <i name="e_wo_entrp">   -595.24016566 </i>
    <i name="e_0_energy">   -595.24016566 </i>
   </energy>
  </scstep>
  <scstep>
   <time name="dav">   32.85   32.85</time>
   <time name="total">   37.30   37.31</time>
   <energy>
    <i name="e_fr_energy">   -595.24017301 </i>
    <i name="e_wo_entrp">   -595.24017301 </i>
    <i name="e_0_energy">   -595.24017301 </i>
   </energy>
  </scstep>
  <scstep>
   <time name="dav">   32.21   32.21</time>
   <time name="total">   36.58   36.60</time>
   <energy>
    <i name="e_fr_energy">   -595.24017591 </i>
    <i name="e_wo_entrp">   -595.24017591 </i>
    <i name="e_0_energy">   -595.24017591 </i>
   </energy>
  </scstep>
  <scstep>
   <time name="dav">   31.89   31.89</time>
   <time name="total">   36.42   36.42</time>
   <energy>
    <i name="e_fr_energy">   -595.24017709 </i>
    <i name="e_wo_entrp">   -595.24017709 </i>
    <i name="e_0_energy">   -595.24017709 </i>
   </energy>
  </scstep>
  <scstep>
   <time name="dav">   31.76   31.76</time>
   <time name="total">   32.65   32.66</time>
   <energy>
    <i name="alphaZ">    871.83850952 </i>
    <i name="ewald"> 285752.98662194 </i>
    <i name="hartreedc">-341236.93970159 </i>
    <i name="XCdc">   3053.84056333 </i>
    <i name="pawpsdc">  66343.99739148 </i>
    <i name="pawaedc"> -66337.42713800 </i>
    <i name="eentropy">     -0.00000000 </i>
    <i name="bandstr"> -13250.97235021 </i>
    <i name="atom">  64207.43592568 </i>
    <i name="e_fr_energy">   -595.24017786 </i>
    <i name="e_wo_entrp">   -595.24017786 </i>
    <i name="e_0_energy">   -595.24017786 </i>
   </energy>
  </scstep>
  <structure>
   <crystal>
    <varray name="basis" >
     <v>      13.12862340       0.00000000       0.00000000 </v>
     <v>      -6.56431170      11.36972138       0.00000000 </v>
     <v>       0.00000000       0.00000000      26.82809424 </v>
    </varray>
    <i name="volume">   4004.59716953 </i>
    <varray name="rec_basis" >
     <v>       0.07616945       0.04397645       0.00000000 </v>
     <v>       0.00000000       0.08795290       0.00000000 </v>
     <v>       0.00000000       0.00000000       0.03727436 </v>
    </varray>
   </crystal>
   <varray name="positions" >
    <v>       0.08502658       0.16256127       0.44843450 </v>
    <v>       0.08784873       0.42008614       0.45027014 </v>
    <v>       0.07716876       0.65869907       0.45062972 </v>
    <v>       0.08077728       0.90756844       0.45425826 </v>
    <v>       0.31766253       0.16335532       0.45125127 </v>
    <v>       0.33969094       0.41255385       0.45307593 </v>
    <v>       0.33607190       0.66752953       0.45274757 </v>
    <v>       0.34769287       0.92318112       0.44874425 </v>
    <v>       0.57206758       0.16423316       0.44981850 </v>
    <v>       0.59131745       0.42328933       0.45460043 </v>
    <v>       0.58649968       0.66954995       0.45139996 </v>
    <v>       0.58027416       0.91078736       0.45342403 </v>
    <v>       0.83625023       0.16329222       0.45589117 </v>
    <v>       0.84362107       0.41284945       0.45251275 </v>
    <v>       0.83871125       0.66761943       0.46120405 </v>
    <v>       0.83347884       0.91549728       0.45374270 </v>
    <v>       0.15511066       0.08436797       0.54545064 </v>
    <v>       0.16052088       0.33635363       0.54885396 </v>
    <v>       0.16132712       0.58709860       0.54750937 </v>
    <v>       0.16561300       0.83597299       0.54702132 </v>
    <v>       0.41535824       0.10102106       0.54664478 </v>
    <v>       0.41729182       0.33209781       0.54303581 </v>
    <v>       0.41671389       0.58678804       0.54767157 </v>
    <v>       0.40627289       0.82272320       0.54536732 </v>
    <v>       0.66816158       0.08715700       0.54364141 </v>
    <v>       0.68104339       0.33394680       0.54577983 </v>
    <v>       0.65860968       0.57405802       0.55121012 </v>
    <v>       0.66507355       0.83413654       0.54694328 </v>
    <v>       0.90773134       0.07584722       0.54955582 </v>
    <v>       0.91979924       0.32958714       0.54635941 </v>
    <v>       0.91720141       0.58823952       0.54848511 </v>
    <v>       0.90587980       0.82670852       0.55376130 </v>
    <v>       0.08602347       0.17264037       0.59215724 </v>
    <v>       0.09121586       0.42067058       0.59618318 </v>
    <v>       0.08422812       0.67180308       0.58738980 </v>
    <v>       0.07975842       0.93230089       0.59842243 </v>
    <v>       0.33979992       0.19280305       0.59944038 </v>
    <v>       0.32774213       0.43052776       0.59312927 </v>
    <v>       0.33013494       0.66674697       0.59226247 </v>
    <v>       0.31904769       0.91055234       0.58808143 </v>
    <v>       0.59287594       0.16945296       0.58564033 </v>
    <v>       0.59608228       0.41203012       0.58797938 </v>
    <v>       0.58126382       0.67046551       0.59130008 </v>
    <v>       0.57902541       0.89730194       0.58434565 </v>
    <v>       0.81659614       0.15143200       0.59454321 </v>
    <v>       0.86372939       0.42960221       0.59057359 </v>
    <v>       0.84654005       0.66687441       0.59413684 </v>
    <v>       0.83088195       0.91940820       0.59146031 </v>
    <v>       0.16550099       0.07303315       0.39847100 </v>
    <v>       0.17431551       0.32454765       0.40638969 </v>
    <v>       0.15745160       0.58541850       0.40436523 </v>
    <v>       0.16684701       0.83888971       0.40848499 </v>
    <v>       0.41154603       0.09064067       0.41221281 </v>
    <v>       0.40697902       0.33055137       0.41152744 </v>
    <v>       0.43636968       0.58014318       0.40760215 </v>
    <v>       0.42003745       0.83632817       0.40557368 </v>
    <v>       0.66998179       0.08059023       0.40450967 </v>
    <v>       0.67118756       0.34103585       0.41263581 </v>
    <v>       0.67172232       0.59347176       0.40786748 </v>
    <v>       0.66272518       0.82570653       0.41222838 </v>
    <v>       0.90311419       0.07864099       0.40700242 </v>
    <v>       0.93576018       0.33933082       0.40823783 </v>
    <v>       0.92025018       0.57827306       0.41171705 </v>
    <v>       0.91792461       0.83229457       0.41591000 </v>
    <v>       0.00112439       0.00850924       0.50071384 </v>
    <v>       0.00211879       0.24756842       0.50080198 </v>
    <v>       0.00144617       0.50085552       0.49924337 </v>
    <v>       0.00522376       0.75638342       0.50268255 </v>
    <v>       0.24592868       0.00085005       0.49721442 </v>
    <v>       0.24758389       0.24966321       0.49871116 </v>
    <v>       0.24179633       0.49322825       0.49614267 </v>
    <v>       0.25570576       0.75614015       0.49503809 </v>
    <v>       0.49983452       0.99646111       0.49634456 </v>
    <v>       0.50081103       0.25270169       0.49982850 </v>
    <v>       0.50566976       0.49563602       0.50330699 </v>
    <v>       0.49035924       0.74452629       0.49748730 </v>
    <v>       0.74480788       0.99946192       0.50046955 </v>
    <v>       0.74905596       0.25620439       0.49943651 </v>
    <v>       0.75632784       0.50566340       0.50810063 </v>
    <v>       0.75290746       0.74683756       0.50429269 </v>
   </varray>
  </structure>
  <varray name="forces" >
   <v>      -0.78957529       0.25612235       0.30026013 </v>
   <v>       0.57808597      -0.25141363       0.14492120 </v>
   <v>       0.86407039       1.35679301       0.07541926 </v>
   <v>       0.25280225       0.98451762      -0.64958964 </v>
   <v>       0.88394443      -0.35193591      -0.31027554 </v>
   <v>      -1.58689452       0.62365753      -0.19523335 </v>
   <v>      -0.85344047      -0.64938348      -1.03369367 </v>
   <v>      -1.84827556      -1.03789548       0.31415876 </v>
   <v>       1.26544683       0.59766731       0.33864801 </v>
   <v>       0.15645631      -0.20647966      -0.28148149 </v>
   <v>       0.36474579      -0.78837878       0.52589898 </v>
   <v>      -0.24654166       1.04738108      -0.96950562 </v>
   <v>      -0.31177893       0.00939241      -1.60560312 </v>
   <v>      -0.87704039       0.31055966      -0.28929525 </v>
   <v>      -0.75532037      -0.14595388      -1.42843438 </v>
   <v>       0.28334928       0.08964154       0.14904175 </v>
   <v>       0.91374624      -0.00952841       1.12799884 </v>
   <v>       1.12958940       0.04732914      -0.02036453 </v>
   <v>       0.77826552      -0.50455725      -0.44478304 </v>
   <v>       0.35229903       0.77701383      -0.24289592 </v>
   <v>       0.32075201      -1.60334303       0.33358345 </v>
   <v>      -0.45632106      -0.19565716       2.03641120 </v>
   <v>      -0.12562494      -1.02671518       0.23226342 </v>
   <v>      -0.11986306       1.42085535       0.27629984 </v>
   <v>      -0.67397994      -0.77989201       0.64565360 </v>
   <v>      -1.55650395       0.50909110       1.07588446 </v>
   <v>       0.51790329       0.54606297       0.20005098 </v>
   <v>       0.47801610      -0.72510952      -0.16480345 </v>
   <v>       0.70348311       1.12261604      -0.25638881 </v>
   <v>      -0.02682803       0.52587662       0.50963552 </v>
   <v>       0.94234474      -0.64903885       0.60124494 </v>
   <v>       1.05126675       0.86234922      -0.23216427 </v>
   <v>      -0.29456741      -0.19302150      -0.37872336 </v>
   <v>      -0.38441796      -0.00419317      -1.01682862 </v>
   <v>       0.29334673       0.01384644       0.44272186 </v>
   <v>       0.07008389      -0.37507459      -1.09950088 </v>
   <v>       0.52451016      -0.47999676      -1.46580296 </v>
   <v>       0.17620441      -0.13075931      -0.67324435 </v>
   <v>      -0.01407194       0.01392770      -0.57265556 </v>
   <v>       0.75583218       0.39001779       0.14162249 </v>
   <v>      -0.51229256      -0.16597399       0.43660796 </v>
   <v>      -0.59769614      -0.06984685       0.60318187 </v>
   <v>      -0.02929829      -0.15933268      -0.20579214 </v>
   <v>      -1.09686303       0.82168533       0.98790649 </v>
   <v>       0.28091842       0.40031792      -0.67843510 </v>
   <v>      -0.58497419      -0.55132302       0.03271418 </v>
   <v>      -0.57286559       0.28921816       0.28858733 </v>
   <v>      -0.13808076      -0.37919890       0.18145744 </v>
   <v>      -0.29577418       0.44177102       1.43298001 </v>
   <v>      -0.28547762       0.21073106       0.34230589 </v>
   <v>       0.32500411      -0.19029433       0.52353565 </v>
   <v>       0.00302141      -0.37033750       0.20495098 </v>
   <v>       0.33644705      -0.09753828      -0.77339437 </v>
   <v>       0.87648179       0.06089780      -0.50419307 </v>
   <v>      -0.57386364      -0.14606631       0.26661095 </v>
   <v>       0.14831642      -0.14962128       0.26119575 </v>
   <v>      -0.19864460       0.11044518       0.94050113 </v>
   <v>       0.00147745      -0.11125111      -0.16484504 </v>
   <v>       0.25350878      -0.35537715       0.83636086 </v>
   <v>       0.22467853       0.46620283      -0.26156151 </v>
   <v>       0.46369944      -0.04941263       0.58567204 </v>
   <v>      -0.99784540      -0.48575938       0.01512085 </v>
   <v>      -0.61047806       0.04575296      -0.15227747 </v>
   <v>      -0.32384462      -0.18945379      -0.42002497 </v>
   <v>      -0.62184938      -1.02048703      -0.41651502 </v>
   <v>      -0.82038823      -0.00590379      -0.14253448 </v>
   <v>       0.41092926      -0.12158731       0.03689820 </v>
   <v>      -0.56893449      -0.84267096      -0.06166596 </v>
   <v>       0.17035909       0.52809193       1.08990568 </v>
   <v>      -0.02071581      -0.04207766       0.04372940 </v>
   <v>       0.83215250       1.17519409       0.79750726 </v>
   <v>      -0.37657817      -0.99665994       0.94223030 </v>
   <v>      -0.14201170       0.83130073       0.43472915 </v>
   <v>       0.17836469      -0.10167019      -0.45559859 </v>
   <v>      -0.86284246       0.84278596      -0.76652756 </v>
   <v>       1.21888012       0.07081665       0.47068349 </v>
   <v>       0.86461303      -0.26225958      -0.13041493 </v>
   <v>       1.80620028      -1.01325386      -0.57155220 </v>
   <v>      -0.26715828      -0.37905360      -1.99866807 </v>
   <v>      -0.63207450       0.56480836      -0.19182332 </v>
  </varray>
  <varray name="stress" >
   <v>       4.49178167      -0.26793225       2.16713036 </v>
   <v>      -0.26793224       2.95085931      -0.63138745 </v>
   <v>       2.16713037      -0.63138746      -3.06461081 </v>
  </varray>
  <energy>
   <i name="e_fr_energy">   -595.24017786 </i>
   <i name="e_wo_entrp">   -595.24017786 </i>
   <i name="e_0_energy">     -0.00000000 </i>
  </energy>
  <time name="totalsc"> 1819.75 1820.21</time>
  <eigenvalues>
   <array>
    <dimension dim="1">band</dimension>
    <dimension dim="2">kpoint</dimension>
    <dimension dim="3">spin</dimension>
    <field>eigene</field>
    <field>occ</field>
    <set>
     <set comment="spin 1">
      <set comment="kpoint 1">
       <r>  -51.9644    1.0000 </r>
       <r>  -51.9450    1.0000 </r>
       <r>  -51.9093    1.0000 </r>
       <r>  -51.9091    1.0000 </r>
       <r>  -51.8894    1.0000 </r>
       <r>  -51.8845    1.0000 </r>
       <r>  -51.8256    1.0000 </r>
       <r>  -51.8210    1.0000 </r>
       <r>  -51.8146    1.0000 </r>
       <r>  -51.7871    1.0000 </r>
       <r>  -51.7710    1.0000 </r>
       <r>  -51.7541    1.0000 </r>
       <r>  -51.7440    1.0000 </r>
       <r>  -51.7180    1.0000 </r>
       <r>  -51.6040    1.0000 </r>
       <r>  -51.5865    1.0000 </r>
       <r>  -51.5843    1.0000 </r>
       <r>  -51.5607    1.0000 </r>
       <r>  -51.5439    1.0000 </r>
       <r>  -51.5400    1.0000 </r>
       <r>  -51.5238    1.0000 </r>
       <r>  -51.5146    1.0000 </r>
       <r>  -51.5101    1.0000 </r>
       <r>  -51.5008    1.0000 </r>
       <r>  -51.4810    1.0000 </r>
       <r>  -51.3826    1.0000 </r>
       <r>  -51.3779    1.0000 </r>
       <r>  -51.3628    1.0000 </r>
       <r>  -51.3112    1.0000 </r>
       <r>  -51.2766    1.0000 </r>
       <r>  -51.2504    1.0000 </r>
       <r>  -51.2228    1.0000 </r>
       <r>  -31.0035    1.0000 </r>
       <r>  -30.9872    1.0000 </r>
       <r>  -30.9410    1.0000 </r>
       <r>  -30.8605    1.0000 </r>
       <r>  -30.8506    1.0000 </r>
       <r>  -30.8049    1.0000 </r>
       <r>  -30.8012    1.0000 </r>
       <r>  -30.7819    1.0000 </r>
       <r>  -30.7779    1.0000 </r>
       <r>  -30.7690    1.0000 </r>
       <r>  -30.7474    1.0000 </r>
       <r>  -30.7429    1.0000 </r>
       <r>  -30.7132    1.0000 </r>
       <r>  -30.6956    1.0000 </r>
       <r>  -30.6931    1.0000 </r>
       <r>  -30.6688    1.0000 </r>
       <r>  -30.6520    1.0000 </r>
       <r>  -30.6469    1.0000 </r>
       <r>  -30.6435    1.0000 </r>
       <r>  -30.6331    1.0000 </r>
       <r>  -30.6249    1.0000 </r>
       <r>  -30.6141    1.0000 </r>
       <r>  -30.6055    1.0000 </r>
       <r>  -30.5934    1.0000 </r>
       <r>  -30.5884    1.0000 </r>
       <r>  -30.5778    1.0000 </r>
       <r>  -30.5614    1.0000 </r>
       <r>  -30.5603    1.0000 </r>
       <r>  -30.5542    1.0000 </r>
       <r>  -30.5437    1.0000 </r>
       <r>  -30.5339    1.0000 </r>
       <r>  -30.5259    1.0000 </r>
       <r>  -30.5123    1.0000 </r>
       <r>  -30.4986    1.0000 </r>
       <r>  -30.4883    1.0000 </r>
       <r>  -30.4823    1.0000 </r>
       <r>  -30.4752    1.0000 </r>
       <r>  -30.4685    1.0000 </r>
       <r>  -30.4427    1.0000 </r>
       <r>  -30.4413    1.0000 </r>
       <r>  -30.4348    1.0000 </r>
       <r>  -30.4204    1.0000 </r>
       <r>  -30.4094    1.0000 </r>
       <r>  -30.4051    1.0000 </r>
       <r>  -30.3925    1.0000 </r>
       <r>  -30.3734    1.0000 </r>
       <r>  -30.3639    1.0000 </r>
       <r>  -30.3495    1.0000 </r>
       <r>  -30.3435    1.0000 </r>
       <r>  -30.3386    1.0000 </r>
       <r>  -30.3274    1.0000 </r>
       <r>  -30.3094    1.0000 </r>
       <r>  -30.3004    1.0000 </r>
       <r>  -30.2918    1.0000 </r>
       <r>  -30.2840    1.0000 </r>
       <r>  -30.2736    1.0000 </r>
       <r>  -30.2682    1.0000 </r>
       <r>  -30.2594    1.0000 </r>
       <r>  -30.2524    1.0000 </r>
       <r>  -30.2446    1.0000 </r>
       <r>  -30.2384    1.0000 </r>
       <r>  -30.2299    1.0000 </r>
       <r>  -30.2280    1.0000 </r>
       <r>  -30.2148    1.0000 </r>
       <r>  -30.2116    1.0000 </r>
       <r>  -30.1987    1.0000 </r>
       <r>  -30.1893    1.0000 </r>
       <r>  -30.1875    1.0000 </r>
       <r>  -30.1799    1.0000 </r>
       <r>  -30.1724    1.0000 </r>
       <r>  -30.1694    1.0000 </r>
       <r>  -30.1599    1.0000 </r>
       <r>  -30.1576    1.0000 </r>
       <r>  -30.1538    1.0000 </r>
       <r>  -30.1472    1.0000 </r>
       <r>  -30.1325    1.0000 </r>
       <r>  -30.1137    1.0000 </r>
       <r>  -30.1045    1.0000 </r>
       <r>  -30.1003    1.0000 </r>
       <r>  -30.0911    1.0000 </r>
       <r>  -30.0692    1.0000 </r>
       <r>  -30.0355    1.0000 </r>
       <r>  -30.0344    1.0000 </r>
       <r>  -30.0179    1.0000 </r>
       <r>  -30.0102    1.0000 </r>
       <r>  -29.9903    1.0000 </r>
       <r>  -29.9834    1.0000 </r>
       <r>  -29.9725    1.0000 </r>
       <r>  -29.9607    1.0000 </r>
       <r>  -29.9419    1.0000 </r>
       <r>  -29.9338    1.0000 </r>
       <r>  -29.9203    1.0000 </r>
       <r>  -29.9081    1.0000 </r>
       <r>  -29.8899    1.0000 </r>
       <r>  -29.8749    1.0000 </r>
       <r>  -29.8493    1.0000 </r>
       <r>  -27.2505    1.0000 </r>
       <r>  -27.1857    1.0000 </r>
       <r>  -27.1322    1.0000 </r>
       <r>  -27.0676    1.0000 </r>
       <r>  -26.9348    1.0000 </r>
       <r>  -26.8986    1.0000 </r>
       <r>  -26.8840    1.0000 </r>
       <r>  -26.8795    1.0000 </r>
       <r>  -26.8623    1.0000 </r>
       <r>  -26.8400    1.0000 </r>
       <r>  -26.8155    1.0000 </r>
       <r>  -26.7909    1.0000 </r>
       <r>  -26.7689    1.0000 </r>
       <r>  -26.7343    1.0000 </r>
       <r>  -26.6657    1.0000 </r>
       <r>  -26.6215    1.0000 </r>
       <r>  -26.5783    1.0000 </r>
       <r>  -26.5451    1.0000 </r>
       <r>  -26.5434    1.0000 </r>
       <r>  -26.4960    1.0000 </r>
       <r>  -26.4775    1.0000 </r>
       <r>  -26.4650    1.0000 </r>
       <r>  -26.4620    1.0000 </r>
       <r>  -26.4368    1.0000 </r>
       <r>  -26.4197    1.0000 </r>
       <r>  -26.3935    1.0000 </r>
       <r>  -26.1861    1.0000 </r>
       <r>  -26.0891    1.0000 </r>
       <r>  -26.0636    1.0000 </r>
       <r>  -25.9427    1.0000 </r>
       <r>  -25.8876    1.0000 </r>
       <r>  -25.7914    1.0000 </r>
       <r>  -12.2577    1.0000 </r>
       <r>  -11.8834    1.0000 </r>
       <r>  -11.8661    1.0000 </r>
       <r>  -11.8033    1.0000 </r>
       <r>  -11.7920    1.0000 </r>
       <r>  -11.7864    1.0000 </r>
       <r>  -11.6966    1.0000 </r>
       <r>  -11.3576    1.0000 </r>
       <r>  -11.2673    1.0000 </r>
       <r>  -11.2561    1.0000 </r>
       <r>  -11.2069    1.0000 </r>
       <r>  -11.1947    1.0000 </r>
       <r>  -11.1680    1.0000 </r>
       <r>  -11.1237    1.0000 </r>
       <r>  -11.0724    1.0000 </r>
       <r>  -10.9928    1.0000 </r>
       <r>   -9.5301    1.0000 </r>
       <r>   -9.5141    1.0000 </r>
       <r>   -9.4717    1.0000 </r>
       <r>   -9.4230    1.0000 </r>
       <r>   -9.4076    1.0000 </r>
       <r>   -9.3762    1.0000 </r>
       <r>   -9.3552    1.0000 </r>
       <r>   -9.3492    1.0000 </r>
       <r>   -9.2621    1.0000 </r>
       <r>   -9.2323    1.0000 </r>
       <r>   -9.2290    1.0000 </r>
       <r>   -9.1831    1.0000 </r>
       <r>   -9.1488    1.0000 </r>
       <r>   -9.1302    1.0000 </r>
       <r>   -9.1184    1.0000 </r>
       <r>   -9.1003    1.0000 </r>
       <r>   -9.0909    1.0000 </r>
       <r>   -9.0661    1.0000 </r>
       <r>   -9.0573    1.0000 </r>
       <r>   -9.0313    1.0000 </r>
       <r>   -9.0024    1.0000 </r>
       <r>   -8.9821    1.0000 </r>
       <r>   -8.9612    1.0000 </r>
       <r>   -8.9157    1.0000 </r>
       <r>   -8.9121    1.0000 </r>
       <r>   -8.8905    1.0000 </r>
       <r>   -8.8780    1.0000 </r>
       <r>   -8.8637    1.0000 </r>
       <r>   -8.8603    1.0000 </r>
       <r>   -8.8216    1.0000 </r>
       <r>   -8.7856    1.0000 </r>
       <r>   -8.7604    1.0000 </r>
       <r>   -8.7462    1.0000 </r>
       <r>   -8.7407    1.0000 </r>
       <r>   -8.7305    1.0000 </r>
       <r>   -8.7202    1.0000 </r>
       <r>   -8.7056    1.0000 </r>
       <r>   -8.7029    1.0000 </r>
       <r>   -8.6929    1.0000 </r>
       <r>   -8.6801    1.0000 </r>
       <r>   -8.6701    1.0000 </r>
       <r>   -8.6508    1.0000 </r>
       <r>   -8.6258    1.0000 </r>
       <r>   -8.6055    1.0000 </r>
       <r>   -8.5907    1.0000 </r>
       <r>   -8.5786    1.0000 </r>
       <r>   -8.5652    1.0000 </r>
       <r>   -8.5620    1.0000 </r>
       <r>   -8.5438    1.0000 </r>
       <r>   -8.5283    1.0000 </r>
       <r>   -8.5111    1.0000 </r>
       <r>   -8.5038    1.0000 </r>
       <r>   -8.4871    1.0000 </r>
       <r>   -8.4707    1.0000 </r>
       <r>   -8.4565    1.0000 </r>
       <r>   -8.4547    1.0000 </r>
       <r>   -8.4342    1.0000 </r>
       <r>   -8.4200    1.0000 </r>
       <r>   -8.4017    1.0000 </r>
       <r>   -8.3772    1.0000 </r>
       <r>   -8.3639    1.0000 </r>
       <r>   -8.3453    1.0000 </r>
       <r>   -8.3331    1.0000 </r>
       <r>   -8.3226    1.0000 </r>
       <r>   -8.2962    1.0000 </r>
       <r>   -8.2813    1.0000 </r>
       <r>   -8.2721    1.0000 </r>
       <r>   -8.2655    1.0000 </r>
       <r>   -8.2541    1.0000 </r>
       <r>   -8.2404    1.0000 </r>
       <r>   -8.2314    1.0000 </r>
       <r>   -8.2083    1.0000 </r>
       <r>   -8.1931    1.0000 </r>
       <r>   -8.1767    1.0000 </r>
       <r>   -8.1619    1.0000 </r>
       <r>   -8.1502    1.0000 </r>
       <r>   -8.1215    1.0000 </r>
       <r>   -8.1074    1.0000 </r>
       <r>   -8.0899    1.0000 </r>
       <r>   -8.0767    1.0000 </r>
       <r>   -8.0191    1.0000 </r>
       <r>   -7.9187    1.0000 </r>
       <r>   -7.8728    1.0000 </r>
       <r>   -7.8666    1.0000 </r>
       <r>   -7.8401    1.0000 </r>
       <r>   -7.8265    1.0000 </r>
       <r>   -7.7691    1.0000 </r>
       <r>   -7.7110    1.0000 </r>
       <r>   -7.7007    1.0000 </r>
       <r>   -7.6979    1.0000 </r>
       <r>   -7.6798    1.0000 </r>
       <r>   -7.6479    1.0000 </r>
       <r>   -7.6235    1.0000 </r>
       <r>   -7.5913    1.0000 </r>
       <r>   -7.5165    1.0000 </r>
       <r>   -7.4611    1.0000 </r>
       <r>   -5.3855    1.0000 </r>
       <r>   -5.3218    1.0000 </r>
       <r>   -5.2926    1.0000 </r>
       <r>   -5.1192    1.0000 </r>
       <r>   -5.0840    1.0000 </r>
       <r>   -5.0356    1.0000 </r>
       <r>   -4.9977    1.0000 </r>
       <r>   -4.9695    1.0000 </r>
       <r>   -4.9348    1.0000 </r>
       <r>   -4.6877    1.0000 </r>
       <r>   -4.6070    1.0000 </r>
       <r>   -4.5876    1.0000 </r>
       <r>   -4.5549    1.0000 </r>
       <r>   -4.5341    1.0000 </r>
       <r>   -4.4744    1.0000 </r>
       <r>   -4.4647    1.0000 </r>
       <r>   -4.4410    1.0000 </r>
       <r>   -4.4179    1.0000 </r>
       <r>   -4.3995    1.0000 </r>
       <r>   -4.3689    1.0000 </r>
       <r>   -4.3573    1.0000 </r>
       <r>   -4.3207    1.0000 </r>
       <r>   -4.3028    1.0000 </r>
       <r>   -4.2810    1.0000 </r>
       <r>   -4.2713    1.0000 </r>
       <r>   -4.2179    1.0000 </r>
       <r>   -4.2097    1.0000 </r>
       <r>   -4.1976    1.0000 </r>
       <r>   -4.1528    1.0000 </r>
       <r>   -4.1350    1.0000 </r>
       <r>   -4.1130    1.0000 </r>
       <r>   -4.0786    1.0000 </r>
       <r>   -4.0271    1.0000 </r>
       <r>   -4.0088    1.0000 </r>
       <r>   -3.9923    1.0000 </r>
       <r>   -3.9664    1.0000 </r>
       <r>   -3.8267    1.0000 </r>
       <r>   -3.5684    1.0000 </r>
       <r>   -3.5446    1.0000 </r>
       <r>   -3.4555    1.0000 </r>
       <r>   -3.4282    1.0000 </r>
       <r>   -3.4121    1.0000 </r>
       <r>   -3.3705    1.0000 </r>
       <r>   -3.3561    1.0000 </r>
       <r>   -3.2488    1.0000 </r>
       <r>   -3.2354    1.0000 </r>
       <r>   -3.1106    1.0000 </r>
       <r>   -2.9679    1.0000 </r>
       <r>   -2.0972    0.0000 </r>
       <r>   -2.0298    0.0000 </r>
       <r>   -1.9919    0.0000 </r>
       <r>   -1.4873    0.0000 </r>
       <r>   -1.4702    0.0000 </r>
       <r>   -1.4368    0.0000 </r>
       <r>   -1.3673    0.0000 </r>
       <r>   -1.3011    0.0000 </r>
       <r>   -1.2824    0.0000 </r>
       <r>   -0.6844    0.0000 </r>
       <r>   -0.6607    0.0000 </r>
       <r>   -0.6277    0.0000 </r>
       <r>   -0.6011    0.0000 </r>
       <r>   -0.5675    0.0000 </r>
       <r>   -0.5515    0.0000 </r>
       <r>   -0.5196    0.0000 </r>
       <r>   -0.4930    0.0000 </r>
       <r>   -0.4346    0.0000 </r>
       <r>   -0.4173    0.0000 </r>
       <r>   -0.3843    0.0000 </r>
       <r>   -0.3192    0.0000 </r>
       <r>   -0.2766    0.0000 </r>
       <r>   -0.2024    0.0000 </r>
       <r>   -0.1774    0.0000 </r>
       <r>    0.0767    0.0000 </r>
       <r>    0.1225    0.0000 </r>
       <r>    0.1330    0.0000 </r>
       <r>    0.1851    0.0000 </r>
       <r>    0.2504    0.0000 </r>
       <r>    0.2683    0.0000 </r>
       <r>    0.2697    0.0000 </r>
       <r>    0.3158    0.0000 </r>
       <r>    0.3208    0.0000 </r>
       <r>    0.3471    0.0000 </r>
       <r>    0.4020    0.0000 </r>
       <r>    0.4284    0.0000 </r>
       <r>    0.4749    0.0000 </r>
       <r>    0.5162    0.0000 </r>
       <r>    0.5334    0.0000 </r>
       <r>    0.5583    0.0000 </r>
       <r>    0.5825    0.0000 </r>
       <r>    0.5994    0.0000 </r>
       <r>    0.6136    0.0000 </r>
       <r>    0.6368    0.0000 </r>
       <r>    0.6622    0.0000 </r>
       <r>    0.6733    0.0000 </r>
       <r>    0.7177    0.0000 </r>
       <r>    0.7220    0.0000 </r>
       <r>    0.7578    0.0000 </r>
       <r>    0.7715    0.0000 </r>
       <r>    0.7988    0.0000 </r>
       <r>    0.8291    0.0000 </r>
       <r>    0.8447    0.0000 </r>
       <r>    0.8571    0.0000 </r>
       <r>    0.8825    0.0000 </r>
       <r>    0.8893    0.0000 </r>
       <r>    0.8947    0.0000 </r>
       <r>    0.9235    0.0000 </r>
       <r>    0.9272    0.0000 </r>
       <r>    0.9610    0.0000 </r>
       <r>    0.9687    0.0000 </r>
       <r>    0.9944    0.0000 </r>
       <r>    1.0312    0.0000 </r>
       <r>    1.0740    0.0000 </r>
      </set>
      <set comment="kpoint 2">
       <r>  -51.9644    1.0000 </r>
       <r>  -51.9450    1.0000 </r>
       <r>  -51.9093    1.0000 </r>
       <r>  -51.9091    1.0000 </r>
       <r>  -51.8894    1.0000 </r>
       <r>  -51.8845    1.0000 </r>
       <r>  -51.8256    1.0000 </r>
       <r>  -51.8210    1.0000 </r>
       <r>  -51.8146    1.0000 </r>
       <r>  -51.7871    1.0000 </r>
       <r>  -51.7710    1.0000 </r>
       <r>  -51.7541    1.0000 </r>
       <r>  -51.7440    1.0000 </r>
       <r>  -51.7180    1.0000 </r>
       <r>  -51.6040    1.0000 </r>
       <r>  -51.5865    1.0000 </r>
       <r>  -51.5843    1.0000 </r>
       <r>  -51.5607    1.0000 </r>
       <r>  -51.5439    1.0000 </r>
       <r>  -51.5400    1.0000 </r>
       <r>  -51.5238    1.0000 </r>
       <r>  -51.5146    1.0000 </r>
       <r>  -51.5101    1.0000 </r>
       <r>  -51.5008    1.0000 </r>
       <r>  -51.4810    1.0000 </r>
       <r>  -51.3826    1.0000 </r>
       <r>  -51.3779    1.0000 </r>
       <r>  -51.3628    1.0000 </r>
       <r>  -51.3112    1.0000 </r>
       <r>  -51.2766    1.0000 </r>
       <r>  -51.2504    1.0000 </r>
       <r>  -51.2228    1.0000 </r>
       <r>  -31.0025    1.0000 </r>
       <r>  -30.9850    1.0000 </r>
       <r>  -30.9392    1.0000 </r>
       <r>  -30.8571    1.0000 </r>
       <r>  -30.8449    1.0000 </r>
       <r>  -30.8117    1.0000 </r>
       <r>  -30.7957    1.0000 </r>
       <r>  -30.7848    1.0000 </r>
       <r>  -30.7752    1.0000 </r>
       <r>  -30.7707    1.0000 </r>
       <r>  -30.7507    1.0000 </r>
       <r>  -30.7451    1.0000 </r>
       <r>  -30.7150    1.0000 </r>
       <r>  -30.7048    1.0000 </r>
       <r>  -30.6888    1.0000 </r>
       <r>  -30.6654    1.0000 </r>
       <r>  -30.6555    1.0000 </r>
       <r>  -30.6488    1.0000 </r>
       <r>  -30.6436    1.0000 </r>
       <r>  -30.6361    1.0000 </r>
       <r>  -30.6278    1.0000 </r>
       <r>  -30.6213    1.0000 </r>
       <r>  -30.6047    1.0000 </r>
       <r>  -30.5947    1.0000 </r>
       <r>  -30.5896    1.0000 </r>
       <r>  -30.5781    1.0000 </r>
       <r>  -30.5699    1.0000 </r>
       <r>  -30.5619    1.0000 </r>
       <r>  -30.5537    1.0000 </r>
       <r>  -30.5400    1.0000 </r>
       <r>  -30.5335    1.0000 </r>
       <r>  -30.5216    1.0000 </r>
       <r>  -30.5162    1.0000 </r>
       <r>  -30.4999    1.0000 </r>
       <r>  -30.4911    1.0000 </r>
       <r>  -30.4778    1.0000 </r>
       <r>  -30.4738    1.0000 </r>
       <r>  -30.4678    1.0000 </r>
       <r>  -30.4466    1.0000 </r>
       <r>  -30.4379    1.0000 </r>
       <r>  -30.4306    1.0000 </r>
       <r>  -30.4192    1.0000 </r>
       <r>  -30.4108    1.0000 </r>
       <r>  -30.4010    1.0000 </r>
       <r>  -30.3835    1.0000 </r>
       <r>  -30.3754    1.0000 </r>
       <r>  -30.3614    1.0000 </r>
       <r>  -30.3494    1.0000 </r>
       <r>  -30.3385    1.0000 </r>
       <r>  -30.3342    1.0000 </r>
       <r>  -30.3234    1.0000 </r>
       <r>  -30.3066    1.0000 </r>
       <r>  -30.3015    1.0000 </r>
       <r>  -30.2950    1.0000 </r>
       <r>  -30.2832    1.0000 </r>
       <r>  -30.2688    1.0000 </r>
       <r>  -30.2685    1.0000 </r>
       <r>  -30.2614    1.0000 </r>
       <r>  -30.2533    1.0000 </r>
       <r>  -30.2493    1.0000 </r>
       <r>  -30.2416    1.0000 </r>
       <r>  -30.2370    1.0000 </r>
       <r>  -30.2211    1.0000 </r>
       <r>  -30.2138    1.0000 </r>
       <r>  -30.2099    1.0000 </r>
       <r>  -30.1993    1.0000 </r>
       <r>  -30.1930    1.0000 </r>
       <r>  -30.1891    1.0000 </r>
       <r>  -30.1833    1.0000 </r>
       <r>  -30.1766    1.0000 </r>
       <r>  -30.1691    1.0000 </r>
       <r>  -30.1610    1.0000 </r>
       <r>  -30.1521    1.0000 </r>
       <r>  -30.1482    1.0000 </r>
       <r>  -30.1398    1.0000 </r>
       <r>  -30.1306    1.0000 </r>
       <r>  -30.1129    1.0000 </r>
       <r>  -30.1028    1.0000 </r>
       <r>  -30.0998    1.0000 </r>
       <r>  -30.0882    1.0000 </r>
       <r>  -30.0693    1.0000 </r>
       <r>  -30.0377    1.0000 </r>
       <r>  -30.0361    1.0000 </r>
       <r>  -30.0171    1.0000 </r>
       <r>  -30.0117    1.0000 </r>
       <r>  -29.9944    1.0000 </r>
       <r>  -29.9870    1.0000 </r>
       <r>  -29.9746    1.0000 </r>
       <r>  -29.9601    1.0000 </r>
       <r>  -29.9420    1.0000 </r>
       <r>  -29.9336    1.0000 </r>
       <r>  -29.9228    1.0000 </r>
       <r>  -29.9065    1.0000 </r>
       <r>  -29.8898    1.0000 </r>
       <r>  -29.8727    1.0000 </r>
       <r>  -29.8547    1.0000 </r>
       <r>  -27.2504    1.0000 </r>
       <r>  -27.1855    1.0000 </r>
       <r>  -27.1321    1.0000 </r>
       <r>  -27.0674    1.0000 </r>
       <r>  -26.9347    1.0000 </r>
       <r>  -26.8988    1.0000 </r>
       <r>  -26.8844    1.0000 </r>
       <r>  -26.8792    1.0000 </r>
       <r>  -26.8622    1.0000 </r>
       <r>  -26.8402    1.0000 </r>
       <r>  -26.8151    1.0000 </r>
       <r>  -26.7913    1.0000 </r>
       <r>  -26.7689    1.0000 </r>
       <r>  -26.7340    1.0000 </r>
       <r>  -26.6659    1.0000 </r>
       <r>  -26.6215    1.0000 </r>
       <r>  -26.5783    1.0000 </r>
       <r>  -26.5454    1.0000 </r>
       <r>  -26.5432    1.0000 </r>
       <r>  -26.4960    1.0000 </r>
       <r>  -26.4775    1.0000 </r>
       <r>  -26.4651    1.0000 </r>
       <r>  -26.4620    1.0000 </r>
       <r>  -26.4367    1.0000 </r>
       <r>  -26.4197    1.0000 </r>
       <r>  -26.3935    1.0000 </r>
       <r>  -26.1861    1.0000 </r>
       <r>  -26.0891    1.0000 </r>
       <r>  -26.0636    1.0000 </r>
       <r>  -25.9427    1.0000 </r>
       <r>  -25.8876    1.0000 </r>
       <r>  -25.7914    1.0000 </r>
       <r>  -12.2092    1.0000 </r>
       <r>  -12.0352    1.0000 </r>
       <r>  -11.9210    1.0000 </r>
       <r>  -11.8820    1.0000 </r>
       <r>  -11.6727    1.0000 </r>
[...]
       <r>   -32.4463     0.0000    64.0000 </r>
       <r>   -32.2518     0.0000    64.0000 </r>
       <r>   -32.0573     0.0000    64.0000 </r>
       <r>   -31.8628     0.0000    64.0000 </r>
       <r>   -31.6684     0.0000    64.0000 </r>
       <r>   -31.4739     0.0000    64.0000 </r>
       <r>   -31.2794     0.0000    64.0000 </r>
       <r>   -31.0849     0.1202    64.0234 </r>
       <r>   -30.8905    32.8724    70.4162 </r>
       <r>   -30.6960   112.4192    92.2789 </r>
       <r>   -30.5015   198.9063   130.9610 </r>
       <r>   -30.3070   191.4754   168.1981 </r>
       <r>   -30.1126   252.0559   217.2164 </r>
       <r>   -29.9181   152.9221   246.9559 </r>
       <r>   -29.7236    46.5041   255.9997 </r>
       <r>   -29.5292     0.0015   256.0000 </r>
       <r>   -29.3347     0.0000   256.0000 </r>
       <r>   -29.1402     0.0000   256.0000 </r>
       <r>   -28.9457     0.0000   256.0000 </r>
       <r>   -28.7513     0.0000   256.0000 </r>
       <r>   -28.5568     0.0000   256.0000 </r>
       <r>   -28.3623     0.0000   256.0000 </r>
       <r>   -28.1678     0.0000   256.0000 </r>
       <r>   -27.9734     0.0000   256.0000 </r>
       <r>   -27.7789     0.0000   256.0000 </r>
       <r>   -27.5844     0.0000   256.0000 </r>
       <r>   -27.3899     0.0004   256.0001 </r>
       <r>   -27.1955    14.0344   258.7294 </r>
       <r>   -27.0010    27.1278   264.0051 </r>
       <r>   -26.8065    70.2142   277.6599 </r>
       <r>   -26.6120    50.7790   287.5351 </r>
       <r>   -26.4176    86.9838   304.4512 </r>
       <r>   -26.2231    19.7715   308.2963 </r>
       <r>   -26.0286    27.3023   313.6059 </r>
       <r>   -25.8341    23.0755   318.0935 </r>
       <r>   -25.6397     9.8033   320.0000 </r>
       <r>   -25.4452     0.0001   320.0000 </r>
       <r>   -25.2507     0.0000   320.0000 </r>
       <r>   -25.0562     0.0000   320.0000 </r>
       <r>   -24.8618     0.0000   320.0000 </r>
       <r>   -24.6673     0.0000   320.0000 </r>
       <r>   -24.4728     0.0000   320.0000 </r>
       <r>   -24.2783     0.0000   320.0000 </r>
       <r>   -24.0839     0.0000   320.0000 </r>
       <r>   -23.8894     0.0000   320.0000 </r>
       <r>   -23.6949     0.0000   320.0000 </r>
       <r>   -23.5004     0.0000   320.0000 </r>
       <r>   -23.3060     0.0000   320.0000 </r>
       <r>   -23.1115     0.0000   320.0000 </r>
       <r>   -22.9170     0.0000   320.0000 </r>
       <r>   -22.7226     0.0000   320.0000 </r>
       <r>   -22.5281     0.0000   320.0000 </r>
       <r>   -22.3336     0.0000   320.0000 </r>
       <r>   -22.1391     0.0000   320.0000 </r>
       <r>   -21.9447     0.0000   320.0000 </r>
       <r>   -21.7502     0.0000   320.0000 </r>
       <r>   -21.5557     0.0000   320.0000 </r>
       <r>   -21.3612     0.0000   320.0000 </r>
       <r>   -21.1668     0.0000   320.0000 </r>
       <r>   -20.9723     0.0000   320.0000 </r>
       <r>   -20.7778     0.0000   320.0000 </r>
       <r>   -20.5833     0.0000   320.0000 </r>
       <r>   -20.3889     0.0000   320.0000 </r>
       <r>   -20.1944     0.0000   320.0000 </r>
       <r>   -19.9999     0.0000   320.0000 </r>
       <r>   -19.8054     0.0000   320.0000 </r>
       <r>   -19.6110     0.0000   320.0000 </r>
       <r>   -19.4165     0.0000   320.0000 </r>
       <r>   -19.2220     0.0000   320.0000 </r>
       <r>   -19.0275     0.0000   320.0000 </r>
       <r>   -18.8331     0.0000   320.0000 </r>
       <r>   -18.6386     0.0000   320.0000 </r>
       <r>   -18.4441     0.0000   320.0000 </r>
       <r>   -18.2496     0.0000   320.0000 </r>
       <r>   -18.0552     0.0000   320.0000 </r>
       <r>   -17.8607     0.0000   320.0000 </r>
       <r>   -17.6662     0.0000   320.0000 </r>
       <r>   -17.4717     0.0000   320.0000 </r>
       <r>   -17.2773     0.0000   320.0000 </r>
       <r>   -17.0828     0.0000   320.0000 </r>
       <r>   -16.8883     0.0000   320.0000 </r>
       <r>   -16.6938     0.0000   320.0000 </r>
       <r>   -16.4994     0.0000   320.0000 </r>
       <r>   -16.3049     0.0000   320.0000 </r>
       <r>   -16.1104     0.0000   320.0000 </r>
       <r>   -15.9160     0.0000   320.0000 </r>
       <r>   -15.7215     0.0000   320.0000 </r>
       <r>   -15.5270     0.0000   320.0000 </r>
       <r>   -15.3325     0.0000   320.0000 </r>
       <r>   -15.1381     0.0000   320.0000 </r>
       <r>   -14.9436     0.0000   320.0000 </r>
       <r>   -14.7491     0.0000   320.0000 </r>
       <r>   -14.5546     0.0000   320.0000 </r>
       <r>   -14.3602     0.0000   320.0000 </r>
       <r>   -14.1657     0.0000   320.0000 </r>
       <r>   -13.9712     0.0000   320.0000 </r>
       <r>   -13.7767     0.0000   320.0000 </r>
       <r>   -13.5823     0.0000   320.0000 </r>
       <r>   -13.3878     0.0000   320.0000 </r>
       <r>   -13.1933     0.0000   320.0000 </r>
       <r>   -12.9988     0.0000   320.0000 </r>
       <r>   -12.8044     0.0000   320.0000 </r>
       <r>   -12.6099     0.0000   320.0000 </r>
       <r>   -12.4154     0.0000   320.0000 </r>
       <r>   -12.2209     3.3902   320.6593 </r>
       <r>   -12.0265    15.4536   323.6646 </r>
       <r>   -11.8320    18.1677   327.1978 </r>
       <r>   -11.6375    20.2554   331.1369 </r>
       <r>   -11.4430    19.8664   335.0004 </r>
       <r>   -11.2486    32.3005   341.2821 </r>
       <r>   -11.0541    35.5933   348.2040 </r>
       <r>   -10.8596    19.5091   351.9981 </r>
       <r>   -10.6651     0.0100   352.0000 </r>
       <r>   -10.4707     0.0000   352.0000 </r>
       <r>   -10.2762     0.0000   352.0000 </r>
       <r>   -10.0817     0.0000   352.0000 </r>
       <r>    -9.8872     0.0000   352.0000 </r>
       <r>    -9.6928     0.0000   352.0000 </r>
       <r>    -9.4983    13.8553   354.6945 </r>
       <r>    -9.3038    67.0492   367.7338 </r>
       <r>    -9.1094    74.3822   382.1993 </r>
       <r>    -8.9149    97.3692   401.1351 </r>
       <r>    -8.7204   114.7843   423.4577 </r>
       <r>    -8.5259   142.9426   451.2563 </r>
       <r>    -8.3315   135.8400   477.6737 </r>
       <r>    -8.1370   133.2578   503.5889 </r>
       <r>    -7.9425    56.1982   514.5181 </r>
       <r>    -7.7480    59.6062   526.1099 </r>
       <r>    -7.5536    70.7023   539.8597 </r>
       <r>    -7.3591    21.2681   543.9958 </r>
       <r>    -7.1646     0.0216   544.0000 </r>
       <r>    -6.9701     0.0000   544.0000 </r>
       <r>    -6.7757     0.0000   544.0000 </r>
       <r>    -6.5812     0.0000   544.0000 </r>
       <r>    -6.3867     0.0000   544.0000 </r>
       <r>    -6.1922     0.0000   544.0000 </r>
       <r>    -5.9978     0.0000   544.0000 </r>
       <r>    -5.8033     0.0000   544.0000 </r>
       <r>    -5.6088     0.0000   544.0000 </r>
       <r>    -5.4143     0.2931   544.0570 </r>
       <r>    -5.2199    26.2663   549.1651 </r>
       <r>    -5.0254    42.3973   557.4103 </r>
       <r>    -4.8309    33.0765   563.8429 </r>
       <r>    -4.6364    21.8129   568.0849 </r>
       <r>    -4.4420    42.6903   576.3871 </r>
       <r>    -4.2475    55.9879   587.2753 </r>
       <r>    -4.0530    83.6384   603.5408 </r>
       <r>    -3.8585    56.7517   614.5775 </r>
       <r>    -3.6641    33.7477   621.1406 </r>
       <r>    -3.4696    39.0716   628.7390 </r>
       <r>    -3.2751    32.3748   635.0351 </r>
       <r>    -3.0806    19.8669   638.8987 </r>
       <r>    -2.8862     5.6465   639.9968 </r>
       <r>    -2.6917     0.0164   640.0000 </r>
       <r>    -2.4972     0.0000   640.0000 </r>
       <r>    -2.3028     0.0000   640.0000 </r>
       <r>    -2.1083     0.4493   640.0874 </r>
       <r>    -1.9138     9.3232   641.9005 </r>
       <r>    -1.7193    16.7442   645.1568 </r>
       <r>    -1.5249    16.8038   648.4247 </r>
       <r>    -1.3304    18.5030   652.0231 </r>
       <r>    -1.1359    19.1836   655.7538 </r>
       <r>    -0.9414    27.5509   661.1117 </r>
       <r>    -0.7470    20.8093   665.1586 </r>
       <r>    -0.5525    33.5745   671.6880 </r>
       <r>    -0.3580    34.6171   678.4201 </r>
       <r>    -0.1635    30.0077   684.2558 </r>
       <r>     0.0309    26.1584   689.3430 </r>
       <r>     0.2254    33.5091   695.8596 </r>
       <r>     0.4199    41.3277   703.8968 </r>
       <r>     0.6144    87.8930   720.9897 </r>
       <r>     0.8088   111.1546   742.6064 </r>
       <r>     1.0033   105.8942   763.2002 </r>
       <r>     1.1978    24.6804   767.9999 </r>
       <r>     1.3923     0.0007   768.0000 </r>
       <r>     1.5867     0.0000   768.0000 </r>
       <r>     1.7812     0.0000   768.0000 </r>
       <r>     1.9757     0.0000   768.0000 </r>
       <r>     2.1702     0.0000   768.0000 </r>
       <r>     2.3646     0.0000   768.0000 </r>
       <r>     2.5591     0.0000   768.0000 </r>
       <r>     2.7536     0.0000   768.0000 </r>
       <r>     2.9481     0.0000   768.0000 </r>
       <r>     3.1425     0.0000   768.0000 </r>
       <r>     3.3370     0.0000   768.0000 </r>
       <r>     3.5315     0.0000   768.0000 </r>
       <r>     3.7260     0.0000   768.0000 </r>
      </set>
     </set>
    </array>
   </total>
  </dos>
 </calculation>
 <structure name="finalpos" >
  <crystal>
   <varray name="basis" >
    <v>      13.12862340       0.00000000       0.00000000 </v>
    <v>      -6.56431170      11.36972138       0.00000000 </v>
    <v>       0.00000000       0.00000000      26.82809424 </v>
   </varray>
   <i name="volume">   4004.59716953 </i>
   <varray name="rec_basis" >
    <v>       0.07616945       0.04397645       0.00000000 </v>
    <v>       0.00000000       0.08795290       0.00000000 </v>
    <v>       0.00000000       0.00000000       0.03727436 </v>
   </varray>
  </crystal>
  <varray name="positions" >
   <v>       0.08502658       0.16256127       0.44843450 </v>
   <v>       0.08784873       0.42008614       0.45027014 </v>
   <v>       0.07716876       0.65869907       0.45062972 </v>
   <v>       0.08077728       0.90756844       0.45425826 </v>
   <v>       0.31766253       0.16335532       0.45125127 </v>
   <v>       0.33969094       0.41255385       0.45307593 </v>
   <v>       0.33607190       0.66752953       0.45274757 </v>
   <v>       0.34769287       0.92318112       0.44874425 </v>
   <v>       0.57206758       0.16423316       0.44981850 </v>
   <v>       0.59131745       0.42328933       0.45460043 </v>
   <v>       0.58649968       0.66954995       0.45139996 </v>
   <v>       0.58027416       0.91078736       0.45342403 </v>
   <v>       0.83625023       0.16329222       0.45589117 </v>
   <v>       0.84362107       0.41284945       0.45251275 </v>
   <v>       0.83871125       0.66761943       0.46120405 </v>
   <v>       0.83347884       0.91549728       0.45374270 </v>
   <v>       0.15511066       0.08436797       0.54545064 </v>
   <v>       0.16052088       0.33635363       0.54885396 </v>
   <v>       0.16132712       0.58709860       0.54750937 </v>
   <v>       0.16561300       0.83597299       0.54702132 </v>
   <v>       0.41535824       0.10102106       0.54664478 </v>
   <v>       0.41729182       0.33209781       0.54303581 </v>
   <v>       0.41671389       0.58678804       0.54767157 </v>
   <v>       0.40627289       0.82272320       0.54536732 </v>
   <v>       0.66816158       0.08715700       0.54364141 </v>
   <v>       0.68104339       0.33394680       0.54577983 </v>
   <v>       0.65860968       0.57405802       0.55121012 </v>
   <v>       0.66507355       0.83413654       0.54694328 </v>
   <v>       0.90773134       0.07584722       0.54955582 </v>
   <v>       0.91979924       0.32958714       0.54635941 </v>
   <v>       0.91720141       0.58823952       0.54848511 </v>
   <v>       0.90587980       0.82670852       0.55376130 </v>
   <v>       0.08602347       0.17264037       0.59215724 </v>
   <v>       0.09121586       0.42067058       0.59618318 </v>
   <v>       0.08422812       0.67180308       0.58738980 </v>
   <v>       0.07975842       0.93230089       0.59842243 </v>
   <v>       0.33979992       0.19280305       0.59944038 </v>
   <v>       0.32774213       0.43052776       0.59312927 </v>
   <v>       0.33013494       0.66674697       0.59226247 </v>
   <v>       0.31904769       0.91055234       0.58808143 </v>
   <v>       0.59287594       0.16945296       0.58564033 </v>
   <v>       0.59608228       0.41203012       0.58797938 </v>
   <v>       0.58126382       0.67046551       0.59130008 </v>
   <v>       0.57902541       0.89730194       0.58434565 </v>
   <v>       0.81659614       0.15143200       0.59454321 </v>
   <v>       0.86372939       0.42960221       0.59057359 </v>
   <v>       0.84654005       0.66687441       0.59413684 </v>
   <v>       0.83088195       0.91940820       0.59146031 </v>
   <v>       0.16550099       0.07303315       0.39847100 </v>
   <v>       0.17431551       0.32454765       0.40638969 </v>
   <v>       0.15745160       0.58541850       0.40436523 </v>
   <v>       0.16684701       0.83888971       0.40848499 </v>
   <v>       0.41154603       0.09064067       0.41221281 </v>
   <v>       0.40697902       0.33055137       0.41152744 </v>
   <v>       0.43636968       0.58014318       0.40760215 </v>
   <v>       0.42003745       0.83632817       0.40557368 </v>
   <v>       0.66998179       0.08059023       0.40450967 </v>
   <v>       0.67118756       0.34103585       0.41263581 </v>
   <v>       0.67172232       0.59347176       0.40786748 </v>
   <v>       0.66272518       0.82570653       0.41222838 </v>
   <v>       0.90311419       0.07864099       0.40700242 </v>
   <v>       0.93576018       0.33933082       0.40823783 </v>
   <v>       0.92025018       0.57827306       0.41171705 </v>
   <v>       0.91792461       0.83229457       0.41591000 </v>
   <v>       0.00112439       0.00850924       0.50071384 </v>
   <v>       0.00211879       0.24756842       0.50080198 </v>
   <v>       0.00144617       0.50085552       0.49924337 </v>
   <v>       0.00522376       0.75638342       0.50268255 </v>
   <v>       0.24592868       0.00085005       0.49721442 </v>
   <v>       0.24758389       0.24966321       0.49871116 </v>
   <v>       0.24179633       0.49322825       0.49614267 </v>
   <v>       0.25570576       0.75614015       0.49503809 </v>
   <v>       0.49983452       0.99646111       0.49634456 </v>
   <v>       0.50081103       0.25270169       0.49982850 </v>
   <v>       0.50566976       0.49563602       0.50330699 </v>
   <v>       0.49035924       0.74452629       0.49748730 </v>
   <v>       0.74480788       0.99946192       0.50046955 </v>
   <v>       0.74905596       0.25620439       0.49943651 </v>
   <v>       0.75632784       0.50566340       0.50810063 </v>
   <v>       0.75290746       0.74683756       0.50429269 </v>
  </varray>
  <varray name="velocities" >
   <v>       0.00000000       0.00000000       0.00000000 </v>
   <v>       0.00000000       0.00000000       0.00000000 </v>
   <v>       0.00000000       0.00000000       0.00000000 </v>
   <v>       0.00000000       0.00000000       0.00000000 </v>
   <v>       0.00000000       0.00000000       0.00000000 </v>
   <v>       0.00000000       0.00000000       0.00000000 </v>
   <v>       0.00000000       0.00000000       0.00000000 </v>
   <v>       0.00000000       0.00000000       0.00000000 </v>
   <v>       0.00000000       0.00000000       0.00000000 </v>
   <v>       0.00000000       0.00000000       0.00000000 </v>
   <v>       0.00000000       0.00000000       0.00000000 </v>
   <v>       0.00000000       0.00000000       0.00000000 </v>
   <v>       0.00000000       0.00000000       0.00000000 </v>
   <v>       0.00000000       0.00000000       0.00000000 </v>
   <v>       0.00000000       0.00000000       0.00000000 </v>
   <v>       0.00000000       0.00000000       0.00000000 </v>
   <v>       0.00000000       0.00000000       0.00000000 </v>
   <v>       0.00000000       0.00000000       0.00000000 </v>
   <v>       0.00000000       0.00000000       0.00000000 </v>
   <v>       0.00000000       0.00000000       0.00000000 </v>
   <v>       0.00000000       0.00000000       0.00000000 </v>
   <v>       0.00000000       0.00000000       0.00000000 </v>
   <v>       0.00000000       0.00000000       0.00000000 </v>
   <v>       0.00000000       0.00000000       0.00000000 </v>
   <v>       0.00000000       0.00000000       0.00000000 </v>
   <v>       0.00000000       0.00000000       0.00000000 </v>
   <v>       0.00000000       0.00000000       0.00000000 </v>
   <v>       0.00000000       0.00000000       0.00000000 </v>
   <v>       0.00000000       0.00000000       0.00000000 </v>
   <v>       0.00000000       0.00000000       0.00000000 </v>
   <v>       0.00000000       0.00000000       0.00000000 </v>
   <v>       0.00000000       0.00000000       0.00000000 </v>
   <v>       0.00000000       0.00000000       0.00000000 </v>
   <v>       0.00000000       0.00000000       0.00000000 </v>
   <v>       0.00000000       0.00000000       0.00000000 </v>
   <v>       0.00000000       0.00000000       0.00000000 </v>
   <v>       0.00000000       0.00000000       0.00000000 </v>
   <v>       0.00000000       0.00000000       0.00000000 </v>
   <v>       0.00000000       0.00000000       0.00000000 </v>
   <v>       0.00000000       0.00000000       0.00000000 </v>
   <v>       0.00000000       0.00000000       0.00000000 </v>
   <v>       0.00000000       0.00000000       0.00000000 </v>
   <v>       0.00000000       0.00000000       0.00000000 </v>
   <v>       0.00000000       0.00000000       0.00000000 </v>
   <v>       0.00000000       0.00000000       0.00000000 </v>
   <v>       0.00000000       0.00000000       0.00000000 </v>
   <v>       0.00000000       0.00000000       0.00000000 </v>
   <v>       0.00000000       0.00000000       0.00000000 </v>
   <v>       0.00000000       0.00000000       0.00000000 </v>
   <v>       0.00000000       0.00000000       0.00000000 </v>
   <v>       0.00000000       0.00000000       0.00000000 </v>
   <v>       0.00000000       0.00000000       0.00000000 </v>
   <v>       0.00000000       0.00000000       0.00000000 </v>
   <v>       0.00000000       0.00000000       0.00000000 </v>
   <v>       0.00000000       0.00000000       0.00000000 </v>
   <v>       0.00000000       0.00000000       0.00000000 </v>
   <v>       0.00000000       0.00000000       0.00000000 </v>
   <v>       0.00000000       0.00000000       0.00000000 </v>
   <v>       0.00000000       0.00000000       0.00000000 </v>
   <v>       0.00000000       0.00000000       0.00000000 </v>
   <v>       0.00000000       0.00000000       0.00000000 </v>
   <v>       0.00000000       0.00000000       0.00000000 </v>
   <v>       0.00000000       0.00000000       0.00000000 </v>
   <v>       0.00000000       0.00000000       0.00000000 </v>
   <v>       0.00000000       0.00000000       0.00000000 </v>
   <v>       0.00000000       0.00000000       0.00000000 </v>
   <v>       0.00000000       0.00000000       0.00000000 </v>
   <v>       0.00000000       0.00000000       0.00000000 </v>
   <v>       0.00000000       0.00000000       0.00000000 </v>
   <v>       0.00000000       0.00000000       0.00000000 </v>
   <v>       0.00000000       0.00000000       0.00000000 </v>
   <v>       0.00000000       0.00000000       0.00000000 </v>
   <v>       0.00000000       0.00000000       0.00000000 </v>
   <v>       0.00000000       0.00000000       0.00000000 </v>
   <v>       0.00000000       0.00000000       0.00000000 </v>
   <v>       0.00000000       0.00000000       0.00000000 </v>
   <v>       0.00000000       0.00000000       0.00000000 </v>
   <v>       0.00000000       0.00000000       0.00000000 </v>
   <v>       0.00000000       0.00000000       0.00000000 </v>
   <v>       0.00000000       0.00000000       0.00000000 </v>
  </varray>
 </structure>
</modeling>
