 vasp.5.4.4.18Apr17-6-g9f103f2a35 (build Oct 31 2019 15:01:46) complex          
  
 executed on             LinuxIFC date 2024.04.20  23:50:37
 running on   52 total cores
 distrk:  each k-point on   52 cores,    1 groups
 distr:  one band on NCORES_PER_BAND=  13 cores,    4 groups


--------------------------------------------------------------------------------------------------------


 INCAR:
 POTCAR:    PAW_PBE Sc_sv 07Sep2000               
 POTCAR:    PAW_PBE F 08Apr2002                   
 POTCAR:    PAW_PBE C 08Apr2002                   
 POTCAR:    PAW_PBE Sc_sv 07Sep2000               
   VRHFIN =Sc: 3p4s3d                                                           
   LEXCH  = PE                                                                  
   EATOM  =  1273.2868 eV,   93.5839 Ry                                         
                                                                                
   TITEL  = PAW_PBE Sc_sv 07Sep2000                                             
   LULTRA =        F    use ultrasoft PP ?                                      
   IUNSCR =        1    unscreen: 0-lin 1-nonlin 2-no                           
   RPACOR =    2.200    partial core radius                                     
   POMASS =   44.956; ZVAL   =   11.000    mass and valenz                      
   RCORE  =    2.500    outmost cutoff radius                                   
   RWIGS  =    2.700; RWIGS  =    1.429    wigner-seitz radius (au A)           
   ENMAX  =  222.660; ENMIN  =  166.995 eV                                      
   RCLOC  =    1.805    cutoff for local pot                                    
   LCOR   =        T    correct aug charges                                     
   LPAW   =        T    paw PP                                                  
   EAUG   =  443.063                                                            
   RMAX   =    2.551    core radius for proj-oper                               
   RAUG   =    1.300    factor for augmentation sphere                          
   RDEP   =    2.650    radius for radial grids                                 
   RDEPT  =    2.038    core radius for aug-charge                              
                                                                                
   Atomic configuration                                                         
    8 entries                                                                   
     n  l   j            E        occ.                                          
     1  0  0.50     -4394.2533   2.0000                                         
     2  0  0.50      -471.0040   2.0000                                         
     2  1  1.50      -384.9788   6.0000                                         
     3  0  0.50       -52.1410   2.0000                                         
     4  0  0.50        -3.5584   1.0000                                         
     3  1  1.50       -30.8841   6.0000                                         
     3  2  2.50        -1.3655   2.0000                                         
     4  3  2.50        -1.3606   0.0000                                         
   Description                                                                  
     l       E           TYP  RCUT    TYP  RCUT                                 
     0    -52.1409870     23  1.800                                             
     0     -3.5583698     23  2.500                                             
     1    -30.8840697     23  2.300                                             
     1      4.0817478     23  2.300                                             
     2     -1.3655397     23  2.500                                             
     2      0.3564476     23  2.500                                             
  local pseudopotential read in
  partial core-charges read in
  partial kinetic energy density read in
  atomic valenz-charges read in
  non local Contribution for L=           0  read in
    real space projection operators read in
  non local Contribution for L=           0  read in
    real space projection operators read in
  non local Contribution for L=           1  read in
    real space projection operators read in
  non local Contribution for L=           1  read in
    real space projection operators read in
  non local Contribution for L=           2  read in
    real space projection operators read in
  non local Contribution for L=           2  read in
    real space projection operators read in
    PAW grid and wavefunctions read in
 
   number of l-projection  operators is LMAX  =           6
   number of lm-projection operators is LMMAX =          18
 
 POTCAR:    PAW_PBE F 08Apr2002                   
   VRHFIN =F: s2p5                                                              
   LEXCH  = PE                                                                  
   EATOM  =   659.6475 eV,   48.4827 Ry                                         
                                                                                
   TITEL  = PAW_PBE F 08Apr2002                                                 
   LULTRA =        F    use ultrasoft PP ?                                      
   IUNSCR =        1    unscreen: 0-lin 1-nonlin 2-no                           
   RPACOR =    1.200    partial core radius                                     
   POMASS =   18.998; ZVAL   =    7.000    mass and valenz                      
   RCORE  =    1.520    outmost cutoff radius                                   
   RWIGS  =    1.500; RWIGS  =    0.794    wigner-seitz radius (au A)           
   ENMAX  =  400.000; ENMIN  =  300.000 eV                                      
   ICORE  =        2    local potential                                         
   LCOR   =        T    correct aug charges                                     
   LPAW   =        T    paw PP                                                  
   EAUG   =  613.614                                                            
   RMAX   =    1.555    core radius for proj-oper                               
   RAUG   =    1.300    factor for augmentation sphere                          
   RDEP   =    1.539    radius for radial grids                                 
   RDEPT  =    1.299    core radius for aug-charge                              
                                                                                
   Atomic configuration                                                         
    4 entries                                                                   
     n  l   j            E        occ.                                          
     1  0  0.50      -663.3661   2.0000                                         
     2  0  0.50       -29.8995   2.0000                                         
     2  1  0.50       -11.1114   5.0000                                         
     3  2  1.50       -10.8847   0.0000                                         
   Description                                                                  
     l       E           TYP  RCUT    TYP  RCUT                                 
     0    -29.8995018     23  1.200                                             
     0     -9.5240782     23  1.200                                             
     1    -11.1113914     23  1.520                                             
     1      1.3605826     23  1.520                                             
     2    -10.8846608      7  1.500                                             
  local pseudopotential read in
  partial core-charges read in
  partial kinetic energy density read in
  atomic valenz-charges read in
  non local Contribution for L=           0  read in
    real space projection operators read in
  non local Contribution for L=           0  read in
    real space projection operators read in
  non local Contribution for L=           1  read in
    real space projection operators read in
  non local Contribution for L=           1  read in
    real space projection operators read in
    PAW grid and wavefunctions read in
 
   number of l-projection  operators is LMAX  =           4
   number of lm-projection operators is LMMAX =           8
 
 POTCAR:    PAW_PBE C 08Apr2002                   
   VRHFIN =C: s2p2                                                              
   LEXCH  = PE                                                                  
   EATOM  =   147.1560 eV,   10.8157 Ry                                         
                                                                                
   TITEL  = PAW_PBE C 08Apr2002                                                 
   LULTRA =        F    use ultrasoft PP ?                                      
   IUNSCR =        1    unscreen: 0-lin 1-nonlin 2-no                           
   RPACOR =    1.200    partial core radius                                     
   POMASS =   12.011; ZVAL   =    4.000    mass and valenz                      
   RCORE  =    1.500    outmost cutoff radius                                   
   RWIGS  =    1.630; RWIGS  =    0.863    wigner-seitz radius (au A)           
   ENMAX  =  400.000; ENMIN  =  300.000 eV                                      
   ICORE  =        2    local potential                                         
   LCOR   =        T    correct aug charges                                     
   LPAW   =        T    paw PP                                                  
   EAUG   =  644.873                                                            
   DEXC   =    0.000                                                            
   RMAX   =    1.529    core radius for proj-oper                               
   RAUG   =    1.300    factor for augmentation sphere                          
   RDEP   =    1.501    radius for radial grids                                 
   RDEPT  =    1.300    core radius for aug-charge                              
                                                                                
   Atomic configuration                                                         
    4 entries                                                                   
     n  l   j            E        occ.                                          
     1  0  0.50      -273.3789   2.0000                                         
     2  0  0.50       -13.7508   2.0000                                         
     2  1  0.50        -5.2854   2.0000                                         
     3  2  1.50        -5.4423   0.0000                                         
   Description                                                                  
     l       E           TYP  RCUT    TYP  RCUT                                 
     0    -13.7508458     23  1.200                                             
     0     -8.2022199     23  1.200                                             
     1     -5.2854383     23  1.500                                             
     1     34.0145650     23  1.500                                             
     2     -5.4423304      7  1.500                                             
  local pseudopotential read in
  partial core-charges read in
  partial kinetic energy density read in
  atomic valenz-charges read in
  non local Contribution for L=           0  read in
    real space projection operators read in
  non local Contribution for L=           0  read in
    real space projection operators read in
  non local Contribution for L=           1  read in
    real space projection operators read in
  non local Contribution for L=           1  read in
    real space projection operators read in
    PAW grid and wavefunctions read in
 
   number of l-projection  operators is LMAX  =           4
   number of lm-projection operators is LMMAX =           8
 
 Optimization of the real space projectors (new method)

 maximal supplied QI-value         = 15.12
 optimisation between [QCUT,QGAM] = [ 12.55, 25.10] = [ 44.09,176.36] Ry 
 Optimized for a Real-space Cutoff    1.56 Angstroem

   l    n(q)    QCUT    max X(q) W(low)/X(q) W(high)/X(q)  e(spline) 
   0     12    12.548     2.962    0.12E-05    0.11E-06    0.46E-07
   0     12    12.548    26.414    0.30E-04    0.15E-05    0.76E-07
   1     11    12.548     3.969    0.45E-05    0.12E-05    0.60E-07
   1     11    12.548     5.137    0.15E-04    0.18E-04    0.36E-06
   2     11    12.548   143.970    0.20E-03    0.19E-03    0.76E-06
   2     11    12.548   121.201    0.20E-03    0.19E-03    0.76E-06
 Optimization of the real space projectors (new method)

 maximal supplied QI-value         = 24.76
 optimisation between [QCUT,QGAM] = [ 12.38, 25.00] = [ 42.90,175.06] Ry 
 Optimized for a Real-space Cutoff    1.16 Angstroem

   l    n(q)    QCUT    max X(q) W(low)/X(q) W(high)/X(q)  e(spline) 
   0      9    12.378    14.049    0.11E-03    0.38E-05    0.23E-06
   0      9    12.378     8.945    0.15E-03    0.56E-05    0.30E-06
   1      8    12.378     7.086    0.18E-03    0.14E-03    0.29E-06
   1      8    12.378     6.747    0.16E-03    0.13E-03    0.26E-06
 Optimization of the real space projectors (new method)

 maximal supplied QI-value         = 25.13
 optimisation between [QCUT,QGAM] = [ 12.32, 24.88] = [ 42.47,173.37] Ry 
 Optimized for a Real-space Cutoff    1.16 Angstroem

   l    n(q)    QCUT    max X(q) W(low)/X(q) W(high)/X(q)  e(spline) 
   0      9    12.315   115.676    0.19E-03    0.80E-05    0.34E-06
   0      9    12.315    87.132    0.19E-03    0.82E-05    0.34E-06
   1      8    12.315     4.429    0.18E-03    0.13E-03    0.22E-06
   1      8    12.315     2.733    0.14E-03    0.10E-03    0.18E-06
  PAW_PBE Sc_sv 07Sep2000               :
 energy of atom  1       EATOM=-1273.2868
 kinetic energy error for atom=    0.0014 (will be added to EATOM!!)
  PAW_PBE F 08Apr2002                   :
 energy of atom  2       EATOM= -659.6475
 kinetic energy error for atom=    0.0256 (will be added to EATOM!!)
  PAW_PBE C 08Apr2002                   :
 energy of atom  3       EATOM= -147.1560
 kinetic energy error for atom=    0.0057 (will be added to EATOM!!)
 
 
 POSCAR: Sc  F  C                                
  positions in cartesian coordinates
  No initial velocities read in
 exchange correlation table for  LEXCH =        8
   RHO(1)=    0.500       N(1)  =     2000
   RHO(2)=  100.500       N(2)  =     4000
 


--------------------------------------------------------------------------------------------------------


 ion  position               nearest neighbor table
   1  0.080  0.164  0.454-  50 2.20  49 2.22  61 2.30  66 2.32  70 2.33  65 2.35  18 3.12  29 3.16
                             4 3.17  13 3.27   6 3.31  16 3.36  17 3.36   5 3.36
   2  0.091  0.433  0.454-  50 2.15  51 2.16  71 2.19  67 2.28  62 2.44  66 2.55  19 3.06  18 3.13
                             7 3.13   6 3.26  30 3.26   3 3.29  14 3.37  13 3.37
   3  0.100  0.688  0.452-  51 2.04  52 2.08  63 2.12  72 2.16  68 2.30  67 2.49  20 3.13   7 3.13
                             8 3.15  31 3.17   4 3.22  19 3.23  15 3.25   2 3.29
   4  0.090  0.928  0.459-  65 2.11  69 2.23  64 2.24  49 2.26  68 2.28  52 2.36  20 3.08  32 3.10
                            17 3.15   1 3.17   3 3.22   8 3.22   5 3.27  15 3.34  16 3.39
   5  0.341  0.174  0.457-  74 2.19  53 2.26  70 2.26  69 2.27  54 2.29  49 2.65  22 3.01  21 3.15
                             8 3.16   6 3.26   9 3.26   4 3.27  10 3.31   1 3.36  17 3.37
   6  0.331  0.417  0.451-  55 2.11  54 2.12  71 2.24  70 2.36  75 2.40  50 2.60  11 3.17  18 3.18
                            22 3.20  23 3.22   2 3.26   5 3.26   1 3.31   7 3.35
   7  0.330  0.672  0.453-  56 2.07  76 2.19  51 2.26  55 2.30  72 2.30  71 2.33  24 3.04   3 3.13
                             2 3.13  12 3.18  19 3.26  23 3.29  11 3.34   6 3.35   8 3.36
   8  0.337  0.931  0.456-  53 2.02  73 2.15  52 2.18  69 2.19  56 2.30  72 2.38  21 3.01   9 3.12
                            20 3.13   3 3.15   5 3.16   4 3.22  12 3.30  24 3.34   7 3.36
   9  0.582  0.160  0.454-  57 2.09  58 2.17  74 2.21  78 2.27  73 2.29  53 2.35  25 3.06   8 3.12
                            26 3.12  21 3.13  13 3.24  12 3.26   5 3.26  14 3.32  10 3.33
  10  0.598  0.421  0.450-  79 2.19  59 2.22  75 2.23  58 2.24  74 2.37  54 2.44  14 3.03  27 3.17
                            26 3.19  15 3.22  11 3.23  22 3.24   5 3.31   9 3.33
  11  0.575  0.655  0.449-  55 1.96  59 2.19  75 2.22  76 2.27  60 2.39  80 2.44  23 3.08   6 3.17
                            27 3.21  10 3.23  16 3.30  12 3.34   7 3.34  28 3.38
  12  0.577  0.909  0.453-  77 2.23  57 2.23  73 2.24  60 2.24  76 2.25  56 2.41  25 3.02   7 3.18
                            28 3.22  24 3.22  16 3.24   9 3.26   8 3.30  11 3.34
  13  0.836  0.175  0.451-  61 2.17  62 2.23  66 2.24  78 2.26  77 2.30  57 2.38  30 3.12  29 3.16
                            25 3.18   9 3.24  14 3.26   1 3.27   2 3.37  16 3.41
  14  0.828  0.420  0.451-  62 2.18  79 2.18  67 2.31  78 2.35  58 2.38  63 2.40  10 3.03  26 3.14
                            31 3.16  15 3.17  30 3.21  13 3.26   9 3.32   2 3.37
  15  0.843  0.668  0.449-  64 2.01  79 2.17  68 2.25  63 2.37  59 2.42  80 2.42  31 3.09  14 3.17
                            27 3.20  32 3.22  10 3.22   3 3.25  16 3.31   4 3.34
  16  0.823  0.910  0.450-  64 2.13  60 2.18  61 2.22  77 2.25  80 2.27  65 2.52  28 3.01  12 3.24
                            29 3.25  32 3.26  11 3.30  15 3.31   1 3.36   4 3.39  13 3.41
  17  0.163  0.079  0.557-  37 2.17  36 2.23  65 2.30  33 2.35  69 2.36  70 2.43   4 3.15  20 3.19
                            32 3.27   1 3.36  21 3.36   5 3.37  18 3.38  29 3.40  22 3.42
  18  0.162  0.335  0.545-  34 2.11  71 2.23  66 2.26  38 2.26  70 2.28  33 2.38   1 3.12   2 3.13
                             6 3.18  19 3.26  30 3.31  29 3.33  17 3.38  22 3.41
  19  0.156  0.580  0.549-  34 2.12  67 2.26  35 2.27  72 2.34  71 2.43  39 2.53   2 3.06  31 3.13
                            24 3.21   3 3.23   7 3.26  18 3.26  30 3.27  20 3.32
  20  0.170  0.840  0.549-  36 2.17  40 2.21  72 2.23  69 2.27  35 2.34  68 2.34   4 3.08   3 3.13
                             8 3.13  17 3.19  21 3.23  31 3.26  32 3.29  19 3.32  24 3.35
  21  0.420  0.082  0.549-  37 2.13  69 2.23  41 2.28  73 2.30  40 2.30  74 2.31   8 3.01   9 3.13
                             5 3.15  20 3.23  25 3.25  26 3.26  22 3.34  17 3.36
  22  0.423  0.337  0.545-  38 2.19  75 2.23  70 2.27  42 2.32  74 2.33  37 2.42   5 3.01   6 3.20
                            23 3.22  10 3.24  27 3.30  26 3.31  21 3.34  18 3.41  17 3.42
  23  0.432  0.587  0.546-  39 2.13  38 2.20  76 2.21  43 2.25  75 2.34  71 2.43  11 3.08  24 3.11
                            27 3.18   6 3.22  22 3.22   7 3.29  28 3.34
  24  0.410  0.812  0.550-  39 2.02  44 2.19  72 2.26  76 2.29  40 2.30  73 2.43   7 3.04  23 3.11
                            19 3.21  12 3.22  25 3.33   8 3.34  20 3.35
  25  0.660  0.069  0.543-  77 2.20  73 2.22  44 2.24  45 2.33  41 2.33  78 2.35  12 3.02   9 3.06
                            29 3.15  28 3.15  13 3.18  21 3.25  24 3.33  30 3.34  26 3.34
  26  0.670  0.328  0.546-  42 2.10  78 2.19  46 2.25  74 2.26  41 2.32  79 2.49  30 3.10   9 3.12
                            14 3.14  10 3.19  21 3.26  22 3.31  25 3.34  27 3.37  31 3.39
  27  0.675  0.588  0.545-  42 2.15  80 2.19  79 2.27  75 2.27  47 2.29  43 2.55  32 3.16  10 3.17
                            23 3.18  15 3.20  11 3.21  31 3.23  28 3.28  22 3.30  26 3.37
  28  0.686  0.843  0.546-  48 2.04  80 2.17  43 2.24  77 2.27  44 2.29  76 2.57  16 3.01  29 3.03
                            32 3.09  25 3.15  12 3.22  27 3.28  23 3.34  11 3.38
  29  0.907  0.083  0.546-  66 2.15  45 2.15  77 2.30  33 2.37  65 2.40  48 2.56  28 3.03  25 3.15
                             1 3.16  13 3.16  30 3.25  16 3.25  18 3.33  32 3.37  17 3.40
  30  0.908  0.330  0.547-  46 2.07  78 2.19  66 2.27  67 2.32  34 2.32  45 2.34  26 3.10  13 3.12
                            14 3.21  29 3.25   2 3.26  19 3.27  18 3.31  31 3.33  25 3.34
  31  0.923  0.592  0.543-  47 2.01  67 2.14  68 2.16  35 2.24  79 2.27  46 2.34  15 3.09  19 3.13
                            14 3.16   3 3.17  32 3.19  27 3.23  20 3.26  30 3.33  26 3.39
  32  0.915  0.830  0.547-  36 2.18  47 2.20  65 2.20  68 2.23  80 2.25  48 2.36  28 3.09   4 3.10
                            27 3.16  31 3.19  15 3.22  16 3.26  17 3.27  20 3.29  29 3.37
  33  0.073  0.170  0.600-  17 2.35  29 2.37  18 2.38
  34  0.088  0.417  0.588-  18 2.11  19 2.12  30 2.32
  35  0.076  0.667  0.596-  31 2.24  19 2.27  20 2.34
  36  0.074  0.902  0.593-  20 2.17  32 2.18  17 2.23
  37  0.335  0.154  0.591-  21 2.13  17 2.17  22 2.42
  38  0.336  0.418  0.586-  22 2.19  23 2.20  18 2.26
  39  0.355  0.665  0.591-  24 2.02  23 2.13  19 2.53
  40  0.334  0.909  0.593-  20 2.21  24 2.30  21 2.30
  41  0.588  0.160  0.595-  21 2.28  26 2.32  25 2.33
  42  0.604  0.424  0.584-  26 2.10  27 2.15  22 2.32
  43  0.588  0.689  0.597-  28 2.24  23 2.25  27 2.55
  44  0.578  0.906  0.590-  24 2.19  25 2.24  28 2.29
  45  0.827  0.156  0.593-  29 2.15  25 2.33  30 2.34
  46  0.841  0.417  0.589-  30 2.07  26 2.25  31 2.34
  47  0.850  0.662  0.587-  31 2.01  32 2.20  27 2.29
  48  0.814  0.895  0.599-  28 2.04  32 2.36  29 2.56
  49  0.145  0.076  0.404-   1 2.22   4 2.26   5 2.65
  50  0.126  0.319  0.408-   2 2.15   1 2.20   6 2.60
  51  0.157  0.594  0.412-   3 2.04   2 2.16   7 2.26
  52  0.179  0.843  0.411-   3 2.08   8 2.18   4 2.36
  53  0.403  0.072  0.411-   8 2.02   5 2.26   9 2.35
  54  0.409  0.339  0.408-   6 2.12   5 2.29  10 2.44
  55  0.422  0.583  0.415-  11 1.96   6 2.11   7 2.30
  56  0.391  0.821  0.409-   7 2.07   8 2.30  12 2.41
  57  0.651  0.078  0.410-   9 2.09  12 2.23  13 2.38
  58  0.650  0.311  0.405-   9 2.17  10 2.24  14 2.38
  59  0.660  0.580  0.403-  11 2.19  10 2.22  15 2.42
  60  0.665  0.837  0.404-  16 2.18  12 2.24  11 2.39
  61  0.906  0.081  0.410-  13 2.17  16 2.22   1 2.30
  62  0.908  0.340  0.406-  14 2.18  13 2.23   2 2.44
  63  0.951  0.597  0.405-   3 2.12  15 2.37  14 2.40
  64  0.917  0.830  0.419-  15 2.01  16 2.13   4 2.24
  65  0.004  0.994  0.504-   4 2.11  32 2.20  17 2.30   1 2.35  29 2.40  16 2.52
  66  0.990  0.242  0.503-  29 2.15  13 2.24  18 2.26  30 2.27   1 2.32   2 2.55
  67  0.994  0.503  0.501-  31 2.14  19 2.26   2 2.28  14 2.31  30 2.32   3 2.49
  68  0.999  0.753  0.500-  31 2.16  32 2.23  15 2.25   4 2.28   3 2.30  20 2.34
  69  0.256  0.008  0.503-   8 2.19   4 2.23  21 2.23  20 2.27   5 2.27  17 2.36
  70  0.250  0.250  0.503-   5 2.26  22 2.27  18 2.28   1 2.33   6 2.36  17 2.43
  71  0.251  0.498  0.499-   2 2.19  18 2.23   6 2.24   7 2.33  23 2.43  19 2.43
  72  0.247  0.754  0.503-   3 2.16  20 2.23  24 2.26   7 2.30  19 2.34   8 2.38
  73  0.494  0.990  0.500-   8 2.15  25 2.22  12 2.24   9 2.29  21 2.30  24 2.43
  74  0.506  0.247  0.499-   5 2.19   9 2.21  26 2.26  21 2.31  22 2.33  10 2.37
  75  0.511  0.496  0.497-  11 2.22  10 2.23  22 2.23  27 2.27  23 2.34   6 2.40
  76  0.494  0.740  0.496-   7 2.19  23 2.21  12 2.25  11 2.27  24 2.29  28 2.57
  77  0.747  0.000  0.494-  25 2.20  12 2.23  16 2.25  28 2.27  13 2.30  29 2.30
  78  0.750  0.250  0.500-  26 2.19  30 2.19  13 2.26   9 2.27  14 2.35  25 2.35
  79  0.759  0.511  0.495-  15 2.17  14 2.18  10 2.19  31 2.27  27 2.27  26 2.49
  80  0.751  0.750  0.501-  28 2.17  27 2.19  32 2.25  16 2.27  15 2.42  11 2.44
 
  LATTYP: Found a hexagonal cell.
 ALAT       =    13.1286233990
 C/A-ratio  =     2.0434811347
  
  Lattice vectors:
  
 A1 = (  13.1286234000,   0.0000000000,   0.0000000000)
 A2 = (  -6.5643117000,  11.3697213800,   0.0000000000)
 A3 = (   0.0000000000,   0.0000000000,  26.8280942400)


Analysis of symmetry for initial positions (statically):
=====================================================================
 Subroutine PRICEL returns:
 Original cell was already a primitive cell.
 

 Routine SETGRP: Setting up the symmetry group for a 
 hexagonal supercell.


 Subroutine GETGRP returns: Found  1 space group operations
 (whereof  1 operations were pure point group operations)
 out of a pool of 24 trial point group operations.


The static configuration has the point symmetry C_1 .


Analysis of symmetry for dynamics (positions and initial velocities):
=====================================================================
 Subroutine PRICEL returns:
 Original cell was already a primitive cell.
 

 Routine SETGRP: Setting up the symmetry group for a 
 hexagonal supercell.


 Subroutine GETGRP returns: Found  1 space group operations
 (whereof  1 operations were pure point group operations)
 out of a pool of 24 trial point group operations.


The dynamic configuration has the point symmetry C_1 .


 Subroutine INISYM returns: Found  1 space group operations
 (whereof  1 operations are pure point group operations),
 and found     1 'primitive' translations

 
 

Automatic generation of k-mesh.
 generate k-points for:    3    3    1
Space group operators:
 irot       det(A)        alpha          n_x          n_y          n_z        tau_x        tau_y        tau_z
    1     1.000000     0.000000     1.000000     0.000000     0.000000     0.000000     0.000000     0.000000
 
 Subroutine IBZKPT returns following result:
 ===========================================
 
 Found      5 irreducible k-points:
 
 Following reciprocal coordinates:
            Coordinates               Weight
  0.000000  0.000000  0.000000      1.000000
  0.333333 -0.000000  0.000000      2.000000
  0.000000  0.333333  0.000000      2.000000
  0.333333  0.333333  0.000000      2.000000
 -0.333333  0.333333  0.000000      2.000000
 
 Following cartesian coordinates:
            Coordinates               Weight
  0.000000  0.000000  0.000000      1.000000
  0.025390  0.014659  0.000000      2.000000
  0.000000  0.029318  0.000000      2.000000
  0.025390  0.043976  0.000000      2.000000
 -0.025390  0.014659  0.000000      2.000000
 


--------------------------------------------------------------------------------------------------------




 Dimension of arrays:
   k-points           NKPTS =      5   k-points in BZ     NKDIM =      5   number of bands    NBANDS=    384
   number of dos      NEDOS =    301   number of ions     NIONS =     80
   non local maximal  LDIM  =      6   non local SUM 2l+1 LMDIM =     18
   total plane-waves  NPLWV = ******
   max r-space proj   IRMAX =  10060   max aug-charges    IRDMAX= 222480
   dimension x,y,z NGX =   108 NGY =  108 NGZ =  216
   dimension x,y,z NGXF=   216 NGYF=  216 NGZF=  432
   support grid    NGXF=   432 NGYF=  432 NGZF=  864
   ions per type =              32  32  16
   NGX,Y,Z   is equivalent  to a cutoff of  13.68, 13.68, 13.38 a.u.
   NGXF,Y,Z  is equivalent  to a cutoff of  27.35, 27.35, 26.77 a.u.

 SYSTEM =  unknown system                          
 POSCAR =  Sc  F  C                                

 Startparameter for this run:
   NWRITE =      2    write-flag & timer
   PREC   = anorma    normal or accurate (medium, high low for compatibility)
   ISTART =      0    job   : 0-new  1-cont  2-samecut
   ICHARG =      2    charge: 1-file 2-atom 10-const
   ISPIN  =      1    spin polarized calculation?
   LNONCOLLINEAR =      F non collinear calculations
   LSORBIT =      F    spin-orbit coupling
   INIWAV =      1    electr: 0-lowe 1-rand  2-diag
   LASPH  =      F    aspherical Exc in radial PAW
   METAGGA=      F    non-selfconsistent MetaGGA calc.

 Electronic Relaxation 1
   ENCUT  =  600.0 eV  44.10 Ry    6.64 a.u.  26.22 26.22 53.58*2*pi/ulx,y,z
   ENINI  =  600.0     initial cutoff
   ENAUG  =  644.9 eV  augmentation charge cutoff
   NELM   =     60;   NELMIN=  2; NELMDL= -5     # of ELM steps 
   EDIFF  = 0.1E-05   stopping-criterion for ELM
   LREAL  =      T    real-space projection
   NLSPLINE    = F    spline interpolate recip. space projectors
   LCOMPAT=      F    compatible to vasp.4.4
   GGA_COMPAT  = T    GGA compatible to vasp.4.4-vasp.4.6
   LMAXPAW     = -100 max onsite density
   LMAXMIX     =    2 max onsite mixed and CHGCAR
   VOSKOWN=      0    Vosko Wilk Nusair interpolation
   ROPT   =   -0.00025  -0.00025  -0.00025
 Ionic relaxation
   EDIFFG = -.1E-01   stopping-criterion for IOM
   NSW    =      1    number of steps for IOM
   NBLOCK =      1;   KBLOCK =      1    inner block; outer block 
   IBRION =     -1    ionic relax: 0-MD 1-quasi-New 2-CG
   NFREE  =      0    steps in history (QN), initial steepest desc. (CG)
   ISIF   =      2    stress and relaxation
   IWAVPR =     10    prediction:  0-non 1-charg 2-wave 3-comb
   ISYM   =      2    0-nonsym 1-usesym 2-fastsym
   LCORR  =      T    Harris-Foulkes like correction to forces

   POTIM  = 1.0000    time-step for ionic-motion
   TEIN   =    0.0    initial temperature
   TEBEG  =    0.0;   TEEND  =   0.0 temperature during run
   SMASS  =  -3.00    Nose mass-parameter (am)
   estimated Nose-frequenzy (Omega)   =  0.10E-29 period in steps =****** mass=  -0.394E-26a.u.
   SCALEE = 1.0000    scale energy and forces
   NPACO  =    256;   APACO  = 16.0  distance and # of slots for P.C.
   PSTRESS=    0.0 pullay stress

  Mass of Ions in am
   POMASS =  44.96 19.00 12.01
  Ionic Valenz
   ZVAL   =  11.00  7.00  4.00
  Atomic Wigner-Seitz radii
   RWIGS  =  -1.00 -1.00 -1.00
  virtual crystal weights 
   VCA    =   1.00  1.00  1.00
   NELECT =     640.0000    total number of electrons
   NUPDOWN=      -1.0000    fix difference up-down

 DOS related values:
   EMIN   =  10.00;   EMAX   =-10.00  energy-range for DOS
   EFERMI =   0.00
   ISMEAR =     0;   SIGMA  =   0.05  broadening in eV -4-tet -1-fermi 0-gaus

 Electronic relaxation 2 (details)
   IALGO  =     38    algorithm
   LDIAG  =      T    sub-space diagonalisation (order eigenvalues)
   LSUBROT=      F    optimize rotation matrix (better conditioning)
   TURBO    =      0    0=normal 1=particle mesh
   IRESTART =      0    0=no restart 2=restart with 2 vectors
   NREBOOT  =      0    no. of reboots
   NMIN     =      0    reboot dimension
   EREF     =   0.00    reference energy to select bands
   IMIX   =      4    mixing-type and parameters
     AMIX     =   0.40;   BMIX     =  1.00
     AMIX_MAG =   1.60;   BMIX_MAG =  1.00
     AMIN     =   0.10
     WC   =   100.;   INIMIX=   1;  MIXPRE=   1;  MAXMIX= -45

 Intra band minimization:
   WEIMIN = 0.0000     energy-eigenvalue tresh-hold
   EBREAK =  0.65E-09  absolut break condition
   DEPER  =   0.30     relativ break condition  

   TIME   =   0.40     timestep for ELM

  volume/ion in A,a.u.               =      50.06       337.80
  Fermi-wavevector in a.u.,A,eV,Ry     =   0.888414  1.678858 10.738790  0.789279
  Thomas-Fermi vector in A             =   2.009840
 
 Write flags
   LWAVE        =      F    write WAVECAR
   LDOWNSAMPLE  =      F    k-point downsampling of WAVECAR
   LCHARG       =      F    write CHGCAR
   LVTOT        =      F    write LOCPOT, total local potential
   LVHAR        =      F    write LOCPOT, Hartree potential only
   LELF         =      F    write electronic localiz. function (ELF)
   LORBIT       =      0    0 simple, 1 ext, 2 COOP (PROOUT), +10 PAW based schemes


 Dipole corrections
   LMONO  =      F    monopole corrections only (constant potential shift)
   LDIPOL =      F    correct potential (dipole corrections)
   IDIPOL =      0    1-x, 2-y, 3-z, 4-all directions 
   EPSILON=  1.0000000 bulk dielectric constant

 Exchange correlation treatment:
   GGA     =    --    GGA type
   LEXCH   =     8    internal setting for exchange type
   VOSKOWN=      0    Vosko Wilk Nusair interpolation
   LHFCALC =     F    Hartree Fock is set to
   LHFONE  =     F    Hartree Fock one center treatment
   AEXX    =    0.0000 exact exchange contribution

 Linear response parameters
   LEPSILON=     F    determine dielectric tensor
   LRPA    =     F    only Hartree local field effects (RPA)
   LNABLA  =     F    use nabla operator in PAW spheres
   LVEL    =     F    velocity operator in full k-point grid
   LINTERFAST=   F  fast interpolation
   KINTER  =     0    interpolate to denser k-point grid
   CSHIFT  =0.1000    complex shift for real part using Kramers Kronig
   OMEGAMAX=  -1.0    maximum frequency
   DEG_THRESHOLD= 0.2000000E-02 threshold for treating states as degnerate
   RTIME   =   -0.100 relaxation time in fs
  (WPLASMAI=    0.000 imaginary part of plasma frequency in eV, 0.658/RTIME)
   DFIELD  = 0.0000000 0.0000000 0.0000000 field for delta impulse in time
 
 Orbital magnetization related:
   ORBITALMAG=     F  switch on orbital magnetization
   LCHIMAG   =     F  perturbation theory with respect to B field
   DQ        =  0.001000  dq finite difference perturbation B field
   LLRAUG    =     F  two centre corrections for induced B field



--------------------------------------------------------------------------------------------------------


 Static calculation
 charge density and potential will be updated during run
 non-spin polarized calculation
 Variant of blocked Davidson
 Davidson routine will perform the subspace rotation
 perform sub-space diagonalisation
    after iterative eigenvector-optimisation
 modified Broyden-mixing scheme, WC =      100.0
 initial mixing is a Kerker type mixing with AMIX =  0.4000 and BMIX =      1.0000
 Hartree-type preconditioning will be used
 using additional bands           64
 real space projection scheme for non local part
 use partial core corrections
 calculate Harris-corrections to forces 
   (improved forces if not selfconsistent)
 use gradient corrections 
 use of overlap-Matrix (Vanderbilt PP)
 Gauss-broadening in eV      SIGMA  =   0.05


--------------------------------------------------------------------------------------------------------


  energy-cutoff  :      600.00
  volume of cell :     4004.60
      direct lattice vectors                 reciprocal lattice vectors
    13.128623400  0.000000000  0.000000000     0.076169448  0.043976451  0.000000000
    -6.564311700 11.369721380  0.000000000     0.000000000  0.087952903  0.000000000
     0.000000000  0.000000000 26.828094240     0.000000000  0.000000000  0.037274358

  length of vectors
    13.128623400 13.128623399 26.828094240     0.087952903  0.087952903  0.037274358


 
 k-points in units of 2pi/SCALE and weight: read from INCAR                         
   0.00000000  0.00000000  0.00000000       0.111
   0.02538982  0.01465882  0.00000000       0.222
   0.00000000  0.02931763  0.00000000       0.222
   0.02538982  0.04397645  0.00000000       0.222
  -0.02538982  0.01465882  0.00000000       0.222
 
 k-points in reciprocal lattice and weights: read from INCAR                         
   0.00000000  0.00000000  0.00000000       0.111
   0.33333333 -0.00000000  0.00000000       0.222
   0.00000000  0.33333333  0.00000000       0.222
   0.33333333  0.33333333  0.00000000       0.222
  -0.33333333  0.33333333  0.00000000       0.222
 
 position of ions in fractional coordinates (direct lattice) 
   0.07985256  0.16401677  0.45421179
   0.09115460  0.43319685  0.45372631
   0.10004154  0.68846037  0.45183181
   0.08951148  0.92762713  0.45881659
   0.34110955  0.17441596  0.45667267
   0.33070751  0.41713380  0.45078575
   0.32960278  0.67177125  0.45304782
   0.33691232  0.93147948  0.45628339
   0.58235707  0.16040034  0.45428662
   0.59806260  0.42128183  0.45028138
   0.57507597  0.65474642  0.44880548
   0.57650753  0.90944430  0.45269440
   0.83630617  0.17511840  0.45119186
   0.82824256  0.41962048  0.45071144
   0.84263500  0.66784112  0.44890737
   0.82349469  0.90955127  0.44979143
   0.16291012  0.07893822  0.55709273
   0.16178824  0.33488736  0.54537057
   0.15556781  0.58005173  0.54941332
   0.17030248  0.84024942  0.54901343
   0.41993719  0.08181123  0.54861116
   0.42264602  0.33730851  0.54534465
   0.43244931  0.58745514  0.54640886
   0.41035033  0.81215791  0.54953435
   0.66043997  0.06903619  0.54280353
   0.67005480  0.32835255  0.54645498
   0.67513153  0.58786982  0.54487880
   0.68617565  0.84283619  0.54582736
   0.90709793  0.08281378  0.54634187
   0.90750095  0.33032547  0.54682623
   0.92318091  0.59153966  0.54298264
   0.91482246  0.82990961  0.54733046
   0.07291912  0.16962051  0.59989417
   0.08758771  0.41733668  0.58765385
   0.07561383  0.66653817  0.59590749
   0.07381127  0.90246558  0.59294053
   0.33480954  0.15419290  0.59148643
   0.33647631  0.41834752  0.58575395
   0.35508950  0.66528500  0.59088768
   0.33350401  0.90902500  0.59344394
   0.58771860  0.15959725  0.59532420
   0.60433775  0.42360470  0.58439537
   0.58826754  0.68872365  0.59667845
   0.57834750  0.90612418  0.58952823
   0.82693152  0.15597746  0.59320187
   0.84120471  0.41655032  0.58865395
   0.84997864  0.66184271  0.58695667
   0.81408900  0.89545236  0.59896981
   0.14490425  0.07562208  0.40352939
   0.12617543  0.31946249  0.40786845
   0.15670464  0.59448398  0.41171111
   0.17866405  0.84349726  0.41066159
   0.40294497  0.07208245  0.41054714
   0.40895042  0.33901416  0.40800552
   0.42208307  0.58271851  0.41524063
   0.39143111  0.82058904  0.40880231
   0.65069173  0.07767308  0.40992683
   0.65021965  0.31131334  0.40498160
   0.66009002  0.58037734  0.40276729
   0.66487173  0.83698775  0.40430124
   0.90635876  0.08078578  0.41030239
   0.90815555  0.33959651  0.40616063
   0.95105518  0.59656888  0.40526523
   0.91666553  0.82990003  0.41922997
   0.00429436  0.99413102  0.50395697
   0.99019792  0.24193183  0.50320818
   0.99358860  0.50269619  0.50055159
   0.99905584  0.75280176  0.50030992
   0.25553728  0.00754621  0.50316492
   0.25038687  0.24987745  0.50268084
   0.25057082  0.49769531  0.49903319
   0.24665730  0.75383383  0.50287426
   0.49399001  0.99003694  0.49959072
   0.50560788  0.24747863  0.49882119
   0.51089989  0.49639784  0.49688148
   0.49369118  0.73978700  0.49552620
   0.74658353  0.00007182  0.49415518
   0.74962786  0.24970035  0.50020401
   0.75890371  0.51051630  0.49490939
   0.75061079  0.74982310  0.50068570
 
 position of ions in cartesian coordinates  (Angst):
  -0.02830307  1.86482496 12.18563665
  -1.64690481  4.92532751 12.17261209
  -3.20586070  7.82760259 12.12178627
  -4.91407110 10.54686201 12.30917464
   3.33337811  1.98306091 12.25165744
   1.60353809  4.74269505 12.09372256
  -0.08248512  7.63785190 12.15440950
  -1.69132672 10.59066212 12.24121366
   6.59262882  1.82370714 12.18764420
   5.08631338  4.78985700 12.08019143
   3.25199631  7.44428434 12.04059572
   1.59887445 10.34012827 12.14492801
   9.83001695  1.99104742 12.10461779
   8.11916499  4.77096797 12.09172898
   6.67872030  7.59316751 12.04332926
   4.84077363 10.34134450 12.06704694
   1.62061057  0.89750558 14.94573632
  -0.07424813  3.80757599 14.63125296
  -1.76524914  6.59502652 14.73971243
  -3.27982188  9.55340174 14.72898391
   4.97616273  0.93017092 14.71819197
   3.33456220  3.83510379 14.63055765
   1.82122555  6.67920123 14.65910830
   0.05607724  9.23400910 14.74295928
   8.21749254  0.78492226 14.56238439
   6.64148866  3.73327699 14.66034565
   5.00458687  6.68391604 14.61805973
   3.47590221  9.58281263 14.64350787
  11.36533168  0.94156959 14.65731111
   9.74587887  3.75570855 14.67030550
   8.23704377  6.72564111 14.56718931
   6.56257429  9.43584098 14.68383318
  -0.15611418  1.92853796 16.09401722
  -1.58962202  4.74500177 15.76563277
  -3.38265877  7.57835328 15.98706217
  -4.95502497 10.26078219 15.90746450
   3.38341815  1.75313032 15.86845378
   1.67130733  4.75649469 15.71466213
   0.29469818  7.56410507 15.85239029
  -1.58867494 10.33536100 15.92096992
   6.66829014  1.81457624 15.97141371
   5.15344938  4.81626746 15.67821407
   3.20214631  7.83059606 16.00774560
   1.64482496 10.30237951 15.81591898
   9.83258787  1.77342022 15.91447558
   8.30949368  4.73606107 15.79246364
   6.81450758  7.52496719 15.74692882
   4.80983952 10.18104383 16.06921852
   1.40598639  0.85980200 10.82592442
  -0.44054163  3.63219952 10.94233330
  -1.84506192  6.75911719 11.04542453
  -3.19136598  9.59032885 11.01726794
   4.81694109  0.81955733 11.01419743
   3.14356146  3.85449656 10.94601046
   1.71622375  6.62534708 11.14011481
  -0.24765063  9.32986872 10.96738684
   8.03281636  0.88312129 10.99755572
   6.49293108  3.53954592 10.86488445
   4.85629561  6.59872860 10.80547885
   3.23460211  9.51631756 10.84663175
  11.36893984  0.91851176 11.00763124
   9.69361484  3.86111766 10.89651564
   8.56998122  6.78282199 10.87249383
   6.58683405  9.43573209 11.24714123
  -6.46940681 11.30299271 13.52020497
  11.41181970  2.75069747 13.50011646
   9.74459604  5.71551559 13.42884534
   8.17460250  8.55914630 13.42236163
   3.30531709  0.08579829 13.49895576
   1.64696143  2.84103698 13.48596886
   0.02262278  5.65865701 13.38810951
  -1.71012947  8.57088059 13.49115801
  -0.01350220 11.25644413 13.40306698
   5.01340863  2.81376302 13.38242202
   3.44890208  5.64390509 13.33038323
   1.62529315  8.41117210 13.29402354
   9.80114246  0.00081663 13.25724183
   8.20247093  2.83902337 13.41952043
   6.61217285  5.80442814 13.27747573
   4.93241380  8.52527972 13.43244307
 


--------------------------------------------------------------------------------------------------------


 k-point  1 :   0.0000 0.0000 0.0000  plane waves:  133769
 k-point  2 :   0.3333-0.0000 0.0000  plane waves:  133588
 k-point  3 :   0.0000 0.3333 0.0000  plane waves:  133588
 k-point  4 :   0.3333 0.3333 0.0000  plane waves:  133608
 k-point  5 :  -0.3333 0.3333 0.0000  plane waves:  133588

 maximum and minimum number of plane-waves per node :     10323    10242

 maximum number of plane-waves:    133769
 maximum index in each direction: 
   IXMAX=   26   IYMAX=   26   IZMAX=   53
   IXMIN=  -26   IYMIN=  -26   IZMIN=  -53


 real space projection operators:
  total allocation   :      55717.48 KBytes
  max/ min on nodes  :       4669.19       4104.12


 parallel 3D FFT for wavefunctions:
    minimum data exchange during FFTs selected (reduces bandwidth)
 parallel 3D FFT for charge:
    minimum data exchange during FFTs selected (reduces bandwidth)


 total amount of memory used by VASP MPI-rank0   234629. kBytes
=======================================================================

   base      :      30000. kBytes
   nonlr-proj:      19361. kBytes
   fftplans  :      66973. kBytes
   grid      :      38377. kBytes
   one-center:        108. kBytes
   wavefun   :      79810. kBytes
 
     INWAV:  cpu time    0.0000: real time    0.0000
 Broyden mixing: mesh for mixing (old mesh)
   NGX = 53   NGY = 53   NGZ =107
  (NGX  =216   NGY  =216   NGZ  =432)
  gives a total of 300563 points

 initial charge density was supplied:
 charge density of overlapping atoms calculated
 number of electron     640.0000000 magnetization 
 keeping initial charge density in first step


--------------------------------------------------------------------------------------------------------


 Maximum index for non-local projection operator         1117
 Maximum index for augmentation-charges         5746 (set IRDMAX)


--------------------------------------------------------------------------------------------------------


 First call to EWALD:  gamma=   0.112
 Maximum number of real-space cells 4x 4x 2
 Maximum number of reciprocal cells 2x 2x 4

    FEWALD:  cpu time    0.0030: real time    0.0030


--------------------------------------- Iteration      1(   1)  ---------------------------------------


    POTLOK:  cpu time    0.4325: real time    0.4372
    SETDIJ:  cpu time    0.4274: real time    0.4309
     EDDAV:  cpu time   46.0418: real time   46.0484
       DOS:  cpu time    0.0014: real time    0.0014
    --------------------------------------------
      LOOP:  cpu time   46.9031: real time   46.9179

 eigenvalue-minimisations  :  4224
 total energy-change (2. order) : 0.1361863E+05  (-0.2789139E+05)
 number of electron     640.0000000 magnetization 
 augmentation part      640.0000000 magnetization 

 Free energy of the ion-electron system (eV)
  ---------------------------------------------------
  alpha Z        PSCENC =       871.83850952
  Ewald energy   TEWEN  =    285846.44506620
  -Hartree energ DENC   =   -340204.10294067
  -exchange      EXHF   =         0.00000000
  -V(xc)+E(xc)   XCENC  =      3042.83428989
  PAW double counting   =     50525.51240023   -50422.77561733
  entropy T*S    EENTRO =        -0.07730128
  eigenvalues    EBANDS =      -248.48027841
  atomic energy  EATOM  =     64207.43592568
  Solvation  Ediel_sol  =         0.00000000
  ---------------------------------------------------
  free energy    TOTEN  =     13618.63005382 eV

  energy without entropy =    13618.70735510  energy(sigma->0) =    13618.66870446


--------------------------------------------------------------------------------------------------------




--------------------------------------- Iteration      1(   2)  ---------------------------------------


     EDDAV:  cpu time   49.1026: real time   49.1115
       DOS:  cpu time    0.0012: real time    0.0012
    --------------------------------------------
      LOOP:  cpu time   49.1038: real time   49.1127

 eigenvalue-minimisations  :  4616
 total energy-change (2. order) :-0.1113839E+05  (-0.1083932E+05)
 number of electron     640.0000000 magnetization 
 augmentation part      640.0000000 magnetization 

 Free energy of the ion-electron system (eV)
  ---------------------------------------------------
  alpha Z        PSCENC =       871.83850952
  Ewald energy   TEWEN  =    285846.44506620
  -Hartree energ DENC   =   -340204.10294067
  -exchange      EXHF   =         0.00000000
  -V(xc)+E(xc)   XCENC  =      3042.83428989
  PAW double counting   =     50525.51240023   -50422.77561733
  entropy T*S    EENTRO =        -0.04644611
  eigenvalues    EBANDS =    -11386.90560298
  atomic energy  EATOM  =     64207.43592568
  Solvation  Ediel_sol  =         0.00000000
  ---------------------------------------------------
  free energy    TOTEN  =      2480.23558443 eV

  energy without entropy =     2480.28203053  energy(sigma->0) =     2480.25880748


--------------------------------------------------------------------------------------------------------




--------------------------------------- Iteration      1(   3)  ---------------------------------------


     EDDAV:  cpu time   67.3231: real time   67.3284
       DOS:  cpu time    0.0005: real time    0.0005
    --------------------------------------------
      LOOP:  cpu time   67.3236: real time   67.3288

 eigenvalue-minimisations  :  6784
 total energy-change (2. order) :-0.2855046E+04  (-0.2738027E+04)
 number of electron     640.0000000 magnetization 
 augmentation part      640.0000000 magnetization 

 Free energy of the ion-electron system (eV)
  ---------------------------------------------------
  alpha Z        PSCENC =       871.83850952
  Ewald energy   TEWEN  =    285846.44506620
  -Hartree energ DENC   =   -340204.10294067
  -exchange      EXHF   =         0.00000000
  -V(xc)+E(xc)   XCENC  =      3042.83428989
  PAW double counting   =     50525.51240023   -50422.77561733
  entropy T*S    EENTRO =        -0.00000000
  eigenvalues    EBANDS =    -14241.99825178
  atomic energy  EATOM  =     64207.43592568
  Solvation  Ediel_sol  =         0.00000000
  ---------------------------------------------------
  free energy    TOTEN  =      -374.81061827 eV

  energy without entropy =     -374.81061827  energy(sigma->0) =     -374.81061827


--------------------------------------------------------------------------------------------------------




--------------------------------------- Iteration      1(   4)  ---------------------------------------


     EDDAV:  cpu time   61.6002: real time   61.6165
       DOS:  cpu time    0.0005: real time    0.0005
    --------------------------------------------
      LOOP:  cpu time   61.6007: real time   61.6169

 eigenvalue-minimisations  :  6048
 total energy-change (2. order) :-0.3622194E+03  (-0.3577769E+03)
 number of electron     640.0000000 magnetization 
 augmentation part      640.0000000 magnetization 

 Free energy of the ion-electron system (eV)
  ---------------------------------------------------
  alpha Z        PSCENC =       871.83850952
  Ewald energy   TEWEN  =    285846.44506620
  -Hartree energ DENC   =   -340204.10294067
  -exchange      EXHF   =         0.00000000
  -V(xc)+E(xc)   XCENC  =      3042.83428989
  PAW double counting   =     50525.51240023   -50422.77561733
  entropy T*S    EENTRO =        -0.00000000
  eigenvalues    EBANDS =    -14604.21764222
  atomic energy  EATOM  =     64207.43592568
  Solvation  Ediel_sol  =         0.00000000
  ---------------------------------------------------
  free energy    TOTEN  =      -737.03000871 eV

  energy without entropy =     -737.03000871  energy(sigma->0) =     -737.03000871


--------------------------------------------------------------------------------------------------------




--------------------------------------- Iteration      1(   5)  ---------------------------------------


     EDDAV:  cpu time   61.7317: real time   61.7443
       DOS:  cpu time    0.0007: real time    0.0007
    CHARGE:  cpu time    3.5694: real time    3.5694
    MIXING:  cpu time    0.0241: real time    0.0245
    --------------------------------------------
      LOOP:  cpu time   65.3259: real time   65.3389

 eigenvalue-minimisations  :  6080
 total energy-change (2. order) :-0.1467372E+02  (-0.1460684E+02)
 number of electron     640.0000006 magnetization 
 augmentation part      134.5255501 magnetization 

 Broyden mixing:
  rms(total) = 0.76902E+01    rms(broyden)= 0.76899E+01
  rms(prec ) = 0.80927E+01
  weight for this iteration     100.00

 Free energy of the ion-electron system (eV)
  ---------------------------------------------------
  alpha Z        PSCENC =       871.83850952
  Ewald energy   TEWEN  =    285846.44506620
  -Hartree energ DENC   =   -340204.10294067
  -exchange      EXHF   =         0.00000000
  -V(xc)+E(xc)   XCENC  =      3042.83428989
  PAW double counting   =     50525.51240023   -50422.77561733
  entropy T*S    EENTRO =        -0.00000000
  eigenvalues    EBANDS =    -14618.89135728
  atomic energy  EATOM  =     64207.43592568
  Solvation  Ediel_sol  =         0.00000000
  ---------------------------------------------------
  free energy    TOTEN  =      -751.70372376 eV

  energy without entropy =     -751.70372376  energy(sigma->0) =     -751.70372376


--------------------------------------------------------------------------------------------------------




--------------------------------------- Iteration      1(   6)  ---------------------------------------


    POTLOK:  cpu time    0.4054: real time    0.4157
    SETDIJ:  cpu time    0.4181: real time    0.4181
     EDDAV:  cpu time   58.8941: real time   58.9019
       DOS:  cpu time    0.0007: real time    0.0007
    CHARGE:  cpu time    3.5945: real time    3.5945
    MIXING:  cpu time    0.0225: real time    0.0225
    --------------------------------------------
      LOOP:  cpu time   63.3353: real time   63.3535

 eigenvalue-minimisations  :  5760
 total energy-change (2. order) : 0.1556103E+03  (-0.8403747E+02)
 number of electron     640.0000007 magnetization 
 augmentation part      140.3501101 magnetization 

 Broyden mixing:
  rms(total) = 0.25169E+01    rms(broyden)= 0.25161E+01
  rms(prec ) = 0.25675E+01
  weight for this iteration     100.00

 eigenvalues of (default mixing * dielectric matrix)
  average eigenvalue GAMMA=   0.9801
  0.9801

 Free energy of the ion-electron system (eV)
  ---------------------------------------------------
  alpha Z        PSCENC =       871.83850952
  Ewald energy   TEWEN  =    285846.44506620
  -Hartree energ DENC   =   -340364.07378329
  -exchange      EXHF   =         0.00000000
  -V(xc)+E(xc)   XCENC  =      3055.40413644
  PAW double counting   =     56430.04953380   -56396.69684855
  entropy T*S    EENTRO =        -0.00000000
  eigenvalues    EBANDS =    -14246.49594682
  atomic energy  EATOM  =     64207.43592568
  Solvation  Ediel_sol  =         0.00000000
  ---------------------------------------------------
  free energy    TOTEN  =      -596.09340702 eV

  energy without entropy =     -596.09340702  energy(sigma->0) =     -596.09340702


--------------------------------------------------------------------------------------------------------




--------------------------------------- Iteration      1(   7)  ---------------------------------------


    POTLOK:  cpu time    0.4129: real time    0.4248
    SETDIJ:  cpu time    0.4280: real time    0.4281
     EDDAV:  cpu time   60.3485: real time   60.3508
       DOS:  cpu time    0.0007: real time    0.0007
    CHARGE:  cpu time    3.5794: real time    3.5793
    MIXING:  cpu time    0.0213: real time    0.0213
    --------------------------------------------
      LOOP:  cpu time   64.7907: real time   64.8049

 eigenvalue-minimisations  :  5944
 total energy-change (2. order) :-0.2064498E+00  (-0.5455727E+01)
 number of electron     640.0000007 magnetization 
 augmentation part      141.0062555 magnetization 

 Broyden mixing:
  rms(total) = 0.16323E+01    rms(broyden)= 0.16322E+01
  rms(prec ) = 0.16603E+01
  weight for this iteration     100.00

 eigenvalues of (default mixing * dielectric matrix)
  average eigenvalue GAMMA=   1.6510
  0.9632  2.3387

 Free energy of the ion-electron system (eV)
  ---------------------------------------------------
  alpha Z        PSCENC =       871.83850952
  Ewald energy   TEWEN  =    285846.44506620
  -Hartree energ DENC   =   -340492.30706055
  -exchange      EXHF   =         0.00000000
  -V(xc)+E(xc)   XCENC  =      3052.08105440
  PAW double counting   =     60166.94118048   -60140.40430639
  entropy T*S    EENTRO =        -0.00000000
  eigenvalues    EBANDS =    -14108.33022618
  atomic energy  EATOM  =     64207.43592568
  Solvation  Ediel_sol  =         0.00000000
  ---------------------------------------------------
  free energy    TOTEN  =      -596.29985684 eV

  energy without entropy =     -596.29985684  energy(sigma->0) =     -596.29985684


--------------------------------------------------------------------------------------------------------




--------------------------------------- Iteration      1(   8)  ---------------------------------------


    POTLOK:  cpu time    0.4070: real time    0.4180
    SETDIJ:  cpu time    0.4169: real time    0.4169
     EDDAV:  cpu time   56.7114: real time   56.7141
       DOS:  cpu time    0.0006: real time    0.0006
    CHARGE:  cpu time    3.5578: real time    3.5578
    MIXING:  cpu time    0.0223: real time    0.0223
    --------------------------------------------
      LOOP:  cpu time   61.1161: real time   61.1298

 eigenvalue-minimisations  :  5488
 total energy-change (2. order) : 0.1397134E+01  (-0.1050130E+01)
 number of electron     640.0000007 magnetization 
 augmentation part      141.0217340 magnetization 

 Broyden mixing:
  rms(total) = 0.45832E+00    rms(broyden)= 0.45823E+00
  rms(prec ) = 0.49167E+00
  weight for this iteration     100.00

 eigenvalues of (default mixing * dielectric matrix)
  average eigenvalue GAMMA=   1.4180
  2.4670  0.8935  0.8935

 Free energy of the ion-electron system (eV)
  ---------------------------------------------------
  alpha Z        PSCENC =       871.83850952
  Ewald energy   TEWEN  =    285846.44506620
  -Hartree energ DENC   =   -340734.12195674
  -exchange      EXHF   =         0.00000000
  -V(xc)+E(xc)   XCENC  =      3048.53818362
  PAW double counting   =     66567.84160035   -66559.01224461
  entropy T*S    EENTRO =        -0.00000000
  eigenvalues    EBANDS =    -13843.86780718
  atomic energy  EATOM  =     64207.43592568
  Solvation  Ediel_sol  =         0.00000000
  ---------------------------------------------------
  free energy    TOTEN  =      -594.90272315 eV

  energy without entropy =     -594.90272315  energy(sigma->0) =     -594.90272315


--------------------------------------------------------------------------------------------------------




--------------------------------------- Iteration      1(   9)  ---------------------------------------


    POTLOK:  cpu time    0.3790: real time    0.3938
    SETDIJ:  cpu time    0.4159: real time    0.4159
     EDDAV:  cpu time   57.2334: real time   57.2366
       DOS:  cpu time    0.0007: real time    0.0007
    CHARGE:  cpu time    3.5587: real time    3.5586
    MIXING:  cpu time    0.0269: real time    0.0269
    --------------------------------------------
      LOOP:  cpu time   61.6146: real time   61.6325

 eigenvalue-minimisations  :  5544
 total energy-change (2. order) : 0.5130392E+00  (-0.2742312E+00)
 number of electron     640.0000007 magnetization 
 augmentation part      141.4298050 magnetization 

 Broyden mixing:
  rms(total) = 0.21834E+00    rms(broyden)= 0.21834E+00
  rms(prec ) = 0.23467E+00
  weight for this iteration     100.00

 eigenvalues of (default mixing * dielectric matrix)
  average eigenvalue GAMMA=   1.2525
  2.1187  1.1168  0.8872  0.8872

 Free energy of the ion-electron system (eV)
  ---------------------------------------------------
  alpha Z        PSCENC =       871.83850952
  Ewald energy   TEWEN  =    285846.44506620
  -Hartree energ DENC   =   -340831.88110664
  -exchange      EXHF   =         0.00000000
  -V(xc)+E(xc)   XCENC  =      3050.38580191
  PAW double counting   =     66965.90730953   -66960.17407065
  entropy T*S    EENTRO =        -0.00000000
  eigenvalues    EBANDS =    -13744.34711949
  atomic energy  EATOM  =     64207.43592568
  Solvation  Ediel_sol  =         0.00000000
  ---------------------------------------------------
  free energy    TOTEN  =      -594.38968393 eV

  energy without entropy =     -594.38968393  energy(sigma->0) =     -594.38968393


--------------------------------------------------------------------------------------------------------




--------------------------------------- Iteration      1(  10)  ---------------------------------------


    POTLOK:  cpu time    0.4061: real time    0.4147
    SETDIJ:  cpu time    0.4313: real time    0.4313
     EDDAV:  cpu time   61.1502: real time   61.1693
       DOS:  cpu time    0.0007: real time    0.0007
    CHARGE:  cpu time    3.5846: real time    3.5845
    MIXING:  cpu time    0.0243: real time    0.0243
    --------------------------------------------
      LOOP:  cpu time   65.5972: real time   65.6248

 eigenvalue-minimisations  :  6040
 total energy-change (2. order) : 0.3300282E-01  (-0.2794314E-01)
 number of electron     640.0000007 magnetization 
 augmentation part      141.2783417 magnetization 

 Broyden mixing:
  rms(total) = 0.11886E+00    rms(broyden)= 0.11886E+00
  rms(prec ) = 0.14038E+00
  weight for this iteration     100.00

 eigenvalues of (default mixing * dielectric matrix)
  average eigenvalue GAMMA=   1.4245
  2.3125  2.3125  0.9121  0.9121  0.6733

 Free energy of the ion-electron system (eV)
  ---------------------------------------------------
  alpha Z        PSCENC =       871.83850952
  Ewald energy   TEWEN  =    285846.44506620
  -Hartree energ DENC   =   -340891.46173900
  -exchange      EXHF   =         0.00000000
  -V(xc)+E(xc)   XCENC  =      3051.68013714
  PAW double counting   =     66369.32422882   -66362.44810638
  entropy T*S    EENTRO =        -0.00000000
  eigenvalues    EBANDS =    -13687.17070311
  atomic energy  EATOM  =     64207.43592568
  Solvation  Ediel_sol  =         0.00000000
  ---------------------------------------------------
  free energy    TOTEN  =      -594.35668111 eV

  energy without entropy =     -594.35668111  energy(sigma->0) =     -594.35668111


--------------------------------------------------------------------------------------------------------




--------------------------------------- Iteration      1(  11)  ---------------------------------------


    POTLOK:  cpu time    0.4013: real time    0.4171
    SETDIJ:  cpu time    0.4454: real time    0.4455
     EDDAV:  cpu time   57.3970: real time   57.4012
       DOS:  cpu time    0.0006: real time    0.0006
    CHARGE:  cpu time    3.5711: real time    3.5711
    MIXING:  cpu time    0.0248: real time    0.0248
    --------------------------------------------
      LOOP:  cpu time   61.8402: real time   61.8602

 eigenvalue-minimisations  :  5592
 total energy-change (2. order) : 0.1014436E+00  (-0.1325383E-01)
 number of electron     640.0000007 magnetization 
 augmentation part      141.1800051 magnetization 

 Broyden mixing:
  rms(total) = 0.71749E-01    rms(broyden)= 0.71746E-01
  rms(prec ) = 0.86380E-01
  weight for this iteration     100.00

 eigenvalues of (default mixing * dielectric matrix)
  average eigenvalue GAMMA=   1.3767
  2.6072  1.9912  1.0807  0.9369  0.9369  0.7073

 Free energy of the ion-electron system (eV)
  ---------------------------------------------------
  alpha Z        PSCENC =       871.83850952
  Ewald energy   TEWEN  =    285846.44506620
  -Hartree energ DENC   =   -341039.22323268
  -exchange      EXHF   =         0.00000000
  -V(xc)+E(xc)   XCENC  =      3053.10146928
  PAW double counting   =     66329.80532791   -66323.06571898
  entropy T*S    EENTRO =        -0.00000000
  eigenvalues    EBANDS =    -13540.59258446
  atomic energy  EATOM  =     64207.43592568
  Solvation  Ediel_sol  =         0.00000000
  ---------------------------------------------------
  free energy    TOTEN  =      -594.25523752 eV

  energy without entropy =     -594.25523752  energy(sigma->0) =     -594.25523752


--------------------------------------------------------------------------------------------------------




--------------------------------------- Iteration      1(  12)  ---------------------------------------


    POTLOK:  cpu time    0.4049: real time    0.4148
    SETDIJ:  cpu time    0.4172: real time    0.4172
     EDDAV:  cpu time   59.8057: real time   59.8183
       DOS:  cpu time    0.0005: real time    0.0005
    CHARGE:  cpu time    3.5839: real time    3.5839
    MIXING:  cpu time    0.0236: real time    0.0236
    --------------------------------------------
      LOOP:  cpu time   64.2359: real time   64.2583

 eigenvalue-minimisations  :  5888
 total energy-change (2. order) : 0.2593768E-01  (-0.4874933E-02)
 number of electron     640.0000007 magnetization 
 augmentation part      141.2562151 magnetization 

 Broyden mixing:
  rms(total) = 0.32152E-01    rms(broyden)= 0.32150E-01
  rms(prec ) = 0.48479E-01
  weight for this iteration     100.00

 eigenvalues of (default mixing * dielectric matrix)
  average eigenvalue GAMMA=   1.4039
  2.5111  2.5111  1.1616  1.1616  0.9044  0.9044  0.6731

 Free energy of the ion-electron system (eV)
  ---------------------------------------------------
  alpha Z        PSCENC =       871.83850952
  Ewald energy   TEWEN  =    285846.44506620
  -Hartree energ DENC   =   -341092.94446916
  -exchange      EXHF   =         0.00000000
  -V(xc)+E(xc)   XCENC  =      3053.19031182
  PAW double counting   =     66507.42316051   -66501.16732629
  entropy T*S    EENTRO =        -0.00000000
  eigenvalues    EBANDS =    -13486.45047812
  atomic energy  EATOM  =     64207.43592568
  Solvation  Ediel_sol  =         0.00000000
  ---------------------------------------------------
  free energy    TOTEN  =      -594.22929984 eV

  energy without entropy =     -594.22929984  energy(sigma->0) =     -594.22929984


--------------------------------------------------------------------------------------------------------




--------------------------------------- Iteration      1(  13)  ---------------------------------------


    POTLOK:  cpu time    0.3621: real time    0.3715
    SETDIJ:  cpu time    0.4157: real time    0.4157
     EDDAV:  cpu time   57.7935: real time   57.7946
       DOS:  cpu time    0.0006: real time    0.0006
    CHARGE:  cpu time    3.5792: real time    3.5792
    MIXING:  cpu time    0.0219: real time    0.0219
    --------------------------------------------
      LOOP:  cpu time   62.1729: real time   62.1834

 eigenvalue-minimisations  :  5640
 total energy-change (2. order) : 0.7563065E-02  (-0.3262612E-02)
 number of electron     640.0000007 magnetization 
 augmentation part      141.1966211 magnetization 

 Broyden mixing:
  rms(total) = 0.29797E-01    rms(broyden)= 0.29795E-01
  rms(prec ) = 0.40466E-01
  weight for this iteration     100.00

 eigenvalues of (default mixing * dielectric matrix)
  average eigenvalue GAMMA=   1.3631
  2.6334  2.6334  1.2406  1.2406  0.8936  0.8936  0.7119  0.6580

 Free energy of the ion-electron system (eV)
  ---------------------------------------------------
  alpha Z        PSCENC =       871.83850952
  Ewald energy   TEWEN  =    285846.44506620
  -Hartree energ DENC   =   -341153.68517039
  -exchange      EXHF   =         0.00000000
  -V(xc)+E(xc)   XCENC  =      3053.46258922
  PAW double counting   =     66408.82461362   -66402.15710352
  entropy T*S    EENTRO =        -0.00000000
  eigenvalues    EBANDS =    -13426.38616709
  atomic energy  EATOM  =     64207.43592568
  Solvation  Ediel_sol  =         0.00000000
  ---------------------------------------------------
  free energy    TOTEN  =      -594.22173677 eV

  energy without entropy =     -594.22173677  energy(sigma->0) =     -594.22173677


--------------------------------------------------------------------------------------------------------




--------------------------------------- Iteration      1(  14)  ---------------------------------------


    POTLOK:  cpu time    0.4027: real time    0.4123
    SETDIJ:  cpu time    0.4180: real time    0.4180
     EDDAV:  cpu time   60.0594: real time   60.0608
       DOS:  cpu time    0.0006: real time    0.0006
    CHARGE:  cpu time    3.5889: real time    3.5889
    MIXING:  cpu time    0.0231: real time    0.0231
    --------------------------------------------
      LOOP:  cpu time   64.4926: real time   64.5036

 eigenvalue-minimisations  :  5920
 total energy-change (2. order) : 0.3687112E-02  (-0.9127570E-03)
 number of electron     640.0000007 magnetization 
 augmentation part      141.2193392 magnetization 

 Broyden mixing:
  rms(total) = 0.15044E-01    rms(broyden)= 0.15043E-01
  rms(prec ) = 0.24833E-01
  weight for this iteration     100.00

 eigenvalues of (default mixing * dielectric matrix)
  average eigenvalue GAMMA=   1.4672
  2.8949  2.8949  1.5780  1.5780  0.9265  0.9265  0.8719  0.8719  0.6617

 Free energy of the ion-electron system (eV)
  ---------------------------------------------------
  alpha Z        PSCENC =       871.83850952
  Ewald energy   TEWEN  =    285846.44506620
  -Hartree energ DENC   =   -341195.28605174
  -exchange      EXHF   =         0.00000000
  -V(xc)+E(xc)   XCENC  =      3053.58441553
  PAW double counting   =     66434.53276600   -66427.99469552
  entropy T*S    EENTRO =        -0.00000000
  eigenvalues    EBANDS =    -13384.77398533
  atomic energy  EATOM  =     64207.43592568
  Solvation  Ediel_sol  =         0.00000000
  ---------------------------------------------------
  free energy    TOTEN  =      -594.21804966 eV

  energy without entropy =     -594.21804966  energy(sigma->0) =     -594.21804966


--------------------------------------------------------------------------------------------------------




--------------------------------------- Iteration      1(  15)  ---------------------------------------


    POTLOK:  cpu time    0.4122: real time    0.4227
    SETDIJ:  cpu time    0.4473: real time    0.4475
     EDDAV:  cpu time   55.6091: real time   55.6179
       DOS:  cpu time    0.0005: real time    0.0005
    CHARGE:  cpu time    3.5893: real time    3.5893
    MIXING:  cpu time    0.0254: real time    0.0254
    --------------------------------------------
      LOOP:  cpu time   60.0839: real time   60.1034

 eigenvalue-minimisations  :  5368
 total energy-change (2. order) :-0.5762633E-02  (-0.1161107E-02)
 number of electron     640.0000007 magnetization 
 augmentation part      141.2330278 magnetization 

 Broyden mixing:
  rms(total) = 0.11995E-01    rms(broyden)= 0.11993E-01
  rms(prec ) = 0.16155E-01
  weight for this iteration     100.00

 eigenvalues of (default mixing * dielectric matrix)
  average eigenvalue GAMMA=   1.4905
  3.9644  2.7050  1.9491  1.0376  1.0376  1.0633  0.8710  0.8710  0.6514  0.7546

 Free energy of the ion-electron system (eV)
  ---------------------------------------------------
  alpha Z        PSCENC =       871.83850952
  Ewald energy   TEWEN  =    285846.44506620
  -Hartree energ DENC   =   -341256.77368388
  -exchange      EXHF   =         0.00000000
  -V(xc)+E(xc)   XCENC  =      3053.70260599
  PAW double counting   =     66420.63440994   -66414.12439021
  entropy T*S    EENTRO =        -0.00000000
  eigenvalues    EBANDS =    -13323.38225553
  atomic energy  EATOM  =     64207.43592568
  Solvation  Ediel_sol  =         0.00000000
  ---------------------------------------------------
  free energy    TOTEN  =      -594.22381229 eV

  energy without entropy =     -594.22381229  energy(sigma->0) =     -594.22381229


--------------------------------------------------------------------------------------------------------




--------------------------------------- Iteration      1(  16)  ---------------------------------------


    POTLOK:  cpu time    0.3875: real time    0.3975
    SETDIJ:  cpu time    0.4173: real time    0.4173
     EDDAV:  cpu time   59.5945: real time   59.5963
       DOS:  cpu time    0.0007: real time    0.0007
    CHARGE:  cpu time    3.5907: real time    3.5906
    MIXING:  cpu time    0.0237: real time    0.0237
    --------------------------------------------
      LOOP:  cpu time   64.0144: real time   64.0261

 eigenvalue-minimisations  :  5864
 total energy-change (2. order) :-0.3069030E-02  (-0.2354872E-03)
 number of electron     640.0000007 magnetization 
 augmentation part      141.2272829 magnetization 

 Broyden mixing:
  rms(total) = 0.79008E-02    rms(broyden)= 0.79004E-02
  rms(prec ) = 0.10796E-01
  weight for this iteration     100.00

 eigenvalues of (default mixing * dielectric matrix)
  average eigenvalue GAMMA=   1.5156
  4.2444  2.6963  2.2007  1.1807  1.1807  0.9853  0.9853  0.9096  0.9096  0.6556
  0.7232

 Free energy of the ion-electron system (eV)
  ---------------------------------------------------
  alpha Z        PSCENC =       871.83850952
  Ewald energy   TEWEN  =    285846.44506620
  -Hartree energ DENC   =   -341281.09387184
  -exchange      EXHF   =         0.00000000
  -V(xc)+E(xc)   XCENC  =      3053.74844054
  PAW double counting   =     66421.55784468   -66415.03961799
  entropy T*S    EENTRO =        -0.00000000
  eigenvalues    EBANDS =    -13299.11917811
  atomic energy  EATOM  =     64207.43592568
  Solvation  Ediel_sol  =         0.00000000
  ---------------------------------------------------
  free energy    TOTEN  =      -594.22688132 eV

  energy without entropy =     -594.22688132  energy(sigma->0) =     -594.22688132


--------------------------------------------------------------------------------------------------------




--------------------------------------- Iteration      1(  17)  ---------------------------------------


    POTLOK:  cpu time    0.3967: real time    0.4085
    SETDIJ:  cpu time    0.4181: real time    0.4181
     EDDAV:  cpu time   59.6476: real time   59.6528
       DOS:  cpu time    0.0007: real time    0.0007
    CHARGE:  cpu time    3.5822: real time    3.5822
    MIXING:  cpu time    0.0252: real time    0.0252
    --------------------------------------------
      LOOP:  cpu time   64.0705: real time   64.0874

 eigenvalue-minimisations  :  5856
 total energy-change (2. order) :-0.4853441E-02  (-0.2653227E-03)
 number of electron     640.0000007 magnetization 
 augmentation part      141.2316300 magnetization 

 Broyden mixing:
  rms(total) = 0.93446E-02    rms(broyden)= 0.93428E-02
  rms(prec ) = 0.10757E-01
  weight for this iteration     100.00

 eigenvalues of (default mixing * dielectric matrix)
  average eigenvalue GAMMA=   1.6158
  5.4916  2.8517  2.2378  1.8494  0.9618  0.9618  1.0100  1.0100  0.8550  0.8550
  0.6881  0.6180

 Free energy of the ion-electron system (eV)
  ---------------------------------------------------
  alpha Z        PSCENC =       871.83850952
  Ewald energy   TEWEN  =    285846.44506620
  -Hartree energ DENC   =   -341297.95969222
  -exchange      EXHF   =         0.00000000
  -V(xc)+E(xc)   XCENC  =      3053.77601423
  PAW double counting   =     66427.60274206   -66421.15444630
  entropy T*S    EENTRO =        -0.00000000
  eigenvalues    EBANDS =    -13282.21585393
  atomic energy  EATOM  =     64207.43592568
  Solvation  Ediel_sol  =         0.00000000
  ---------------------------------------------------
  free energy    TOTEN  =      -594.23173476 eV

  energy without entropy =     -594.23173476  energy(sigma->0) =     -594.23173476


--------------------------------------------------------------------------------------------------------




--------------------------------------- Iteration      1(  18)  ---------------------------------------


    POTLOK:  cpu time    0.4391: real time    0.4524
    SETDIJ:  cpu time    0.4314: real time    0.4314
     EDDAV:  cpu time   55.2155: real time   55.2202
       DOS:  cpu time    0.0006: real time    0.0006
    CHARGE:  cpu time    3.5768: real time    3.5768
    MIXING:  cpu time    0.0287: real time    0.0287
    --------------------------------------------
      LOOP:  cpu time   59.6921: real time   59.7101

 eigenvalue-minimisations  :  5328
 total energy-change (2. order) :-0.3257759E-02  (-0.7246770E-04)
 number of electron     640.0000007 magnetization 
 augmentation part      141.2225138 magnetization 

 Broyden mixing:
  rms(total) = 0.50427E-02    rms(broyden)= 0.50424E-02
  rms(prec ) = 0.59658E-02
  weight for this iteration     100.00

 eigenvalues of (default mixing * dielectric matrix)
  average eigenvalue GAMMA=   1.6233
  6.1038  2.6584  2.6584  1.7400  0.9622  0.9622  1.1400  0.9118  0.9118  0.8611
  0.8611  0.6748  0.6571

 Free energy of the ion-electron system (eV)
  ---------------------------------------------------
  alpha Z        PSCENC =       871.83850952
  Ewald energy   TEWEN  =    285846.44506620
  -Hartree energ DENC   =   -341313.66991912
  -exchange      EXHF   =         0.00000000
  -V(xc)+E(xc)   XCENC  =      3053.82288441
  PAW double counting   =     66415.75068150   -66409.29801479
  entropy T*S    EENTRO =        -0.00000000
  eigenvalues    EBANDS =    -13266.56012592
  atomic energy  EATOM  =     64207.43592568
  Solvation  Ediel_sol  =         0.00000000
  ---------------------------------------------------
  free energy    TOTEN  =      -594.23499252 eV

  energy without entropy =     -594.23499252  energy(sigma->0) =     -594.23499252


--------------------------------------------------------------------------------------------------------




--------------------------------------- Iteration      1(  19)  ---------------------------------------


    POTLOK:  cpu time    0.3932: real time    0.3991
    SETDIJ:  cpu time    0.4170: real time    0.4190
     EDDAV:  cpu time   56.3805: real time   56.3824
       DOS:  cpu time    0.0006: real time    0.0006
    CHARGE:  cpu time    3.5606: real time    3.5606
    MIXING:  cpu time    0.0251: real time    0.0251
    --------------------------------------------
      LOOP:  cpu time   60.7771: real time   60.7868

 eigenvalue-minimisations  :  5456
 total energy-change (2. order) :-0.1768097E-02  (-0.4861752E-04)
 number of electron     640.0000007 magnetization 
 augmentation part      141.2230889 magnetization 

 Broyden mixing:
  rms(total) = 0.21233E-02    rms(broyden)= 0.21208E-02
  rms(prec ) = 0.31175E-02
  weight for this iteration     100.00

 eigenvalues of (default mixing * dielectric matrix)
  average eigenvalue GAMMA=   1.6349
  6.5200  3.0303  2.3205  2.1023  0.9751  0.9751  1.1263  1.1263  0.9246  0.9246
  0.7655  0.7655  0.6381  0.6950

 Free energy of the ion-electron system (eV)
  ---------------------------------------------------
  alpha Z        PSCENC =       871.83850952
  Ewald energy   TEWEN  =    285846.44506620
  -Hartree energ DENC   =   -341318.14873722
  -exchange      EXHF   =         0.00000000
  -V(xc)+E(xc)   XCENC  =      3053.82743797
  PAW double counting   =     66419.49140310   -66413.05336608
  entropy T*S    EENTRO =        -0.00000000
  eigenvalues    EBANDS =    -13262.07299979
  atomic energy  EATOM  =     64207.43592568
  Solvation  Ediel_sol  =         0.00000000
  ---------------------------------------------------
  free energy    TOTEN  =      -594.23676062 eV

  energy without entropy =     -594.23676062  energy(sigma->0) =     -594.23676062


--------------------------------------------------------------------------------------------------------




--------------------------------------- Iteration      1(  20)  ---------------------------------------


    POTLOK:  cpu time    0.4079: real time    0.4197
    SETDIJ:  cpu time    0.4425: real time    0.4425
     EDDAV:  cpu time   53.6478: real time   53.6497
       DOS:  cpu time    0.0006: real time    0.0006
    CHARGE:  cpu time    3.5567: real time    3.5567
    MIXING:  cpu time    0.0258: real time    0.0258
    --------------------------------------------
      LOOP:  cpu time   58.0813: real time   58.0949

 eigenvalue-minimisations  :  5104
 total energy-change (2. order) :-0.2406973E-02  (-0.1006036E-04)
 number of electron     640.0000007 magnetization 
 augmentation part      141.2227431 magnetization 

 Broyden mixing:
  rms(total) = 0.21878E-02    rms(broyden)= 0.21873E-02
  rms(prec ) = 0.27048E-02
  weight for this iteration     100.00

 eigenvalues of (default mixing * dielectric matrix)
  average eigenvalue GAMMA=   1.6888
  6.9398  3.3257  2.3734  2.3353  1.6777  0.9493  0.9493  1.0662  0.9555  0.9555
  0.8545  0.8545  0.7941  0.6783  0.6233

 Free energy of the ion-electron system (eV)
  ---------------------------------------------------
  alpha Z        PSCENC =       871.83850952
  Ewald energy   TEWEN  =    285846.44506620
  -Hartree energ DENC   =   -341321.46840447
  -exchange      EXHF   =         0.00000000
  -V(xc)+E(xc)   XCENC  =      3053.82488258
  PAW double counting   =     66414.39673983   -66407.94288535
  entropy T*S    EENTRO =        -0.00000000
  eigenvalues    EBANDS =    -13258.76900159
  atomic energy  EATOM  =     64207.43592568
  Solvation  Ediel_sol  =         0.00000000
  ---------------------------------------------------
  free energy    TOTEN  =      -594.23916759 eV

  energy without entropy =     -594.23916759  energy(sigma->0) =     -594.23916759


--------------------------------------------------------------------------------------------------------




--------------------------------------- Iteration      1(  21)  ---------------------------------------


    POTLOK:  cpu time    0.3638: real time    0.3699
    SETDIJ:  cpu time    0.4173: real time    0.4173
     EDDAV:  cpu time   49.0793: real time   49.0790
       DOS:  cpu time    0.0006: real time    0.0006
    CHARGE:  cpu time    3.5646: real time    3.5646
    MIXING:  cpu time    0.0250: real time    0.0250
    --------------------------------------------
      LOOP:  cpu time   53.4507: real time   53.4564

 eigenvalue-minimisations  :  4576
 total energy-change (2. order) :-0.2340600E-02  (-0.1031884E-04)
 number of electron     640.0000007 magnetization 
 augmentation part      141.2236384 magnetization 

 Broyden mixing:
  rms(total) = 0.12089E-02    rms(broyden)= 0.12079E-02
[...]
    -6.564311700 11.369721380  0.000000000     0.000000000  0.087952903  0.000000000
     0.000000000  0.000000000 26.828094240     0.000000000  0.000000000  0.037274358

  length of vectors
    13.128623400 13.128623399 26.828094240     0.087952903  0.087952903  0.037274358


 FORCES acting on ions
    electron-ion (+dipol)            ewald-force                    non-local-force                 convergence-correction
 -----------------------------------------------------------------------------------------------
   -.518E+02 -.194E+02 0.117E+04   0.519E+02 0.193E+02 -.117E+04   -.127E+00 -.797E-01 -.468E+01   0.167E-04 0.123E-04 0.751E-04
   -.157E+02 0.590E+02 0.121E+04   0.152E+02 -.599E+02 -.121E+04   -.396E+00 -.274E+00 -.527E+01   0.751E-04 0.214E-04 0.881E-04
   0.346E+02 0.139E+02 0.121E+04   -.363E+02 -.148E+02 -.121E+04   0.294E+00 0.141E+00 -.368E+01   0.760E-04 -.108E-03 -.178E-04
   -.210E+01 -.641E+02 0.114E+04   0.150E+01 0.640E+02 -.113E+04   0.527E+00 -.246E+00 -.595E+01   -.594E-04 0.129E-03 0.987E-05
   0.904E+02 -.284E+02 0.119E+04   -.905E+02 0.285E+02 -.119E+04   -.512E+00 -.419E+00 -.663E+01   0.116E-04 0.668E-04 0.114E-03
   0.683E+02 0.882E+02 0.130E+04   -.668E+02 -.886E+02 -.130E+04   -.118E+01 -.255E+00 -.612E+01   0.135E-04 0.233E-04 0.136E-03
   -.393E+02 0.736E+02 0.124E+04   0.398E+02 -.724E+02 -.123E+04   -.466E-01 -.157E+01 -.577E+01   0.184E-04 -.723E-04 0.570E-04
   -.278E+02 0.158E+02 0.113E+04   0.282E+02 -.169E+02 -.113E+04   -.138E+00 -.830E+00 -.431E+01   -.363E-04 0.571E-05 -.169E-04
   0.279E+02 -.240E+02 0.120E+04   -.273E+02 0.246E+02 -.119E+04   -.776E+00 -.462E+00 -.468E+01   -.516E-04 0.106E-03 0.627E-04
   0.350E+02 0.388E+02 0.132E+04   -.362E+02 -.386E+02 -.132E+04   -.566E-01 -.863E+00 -.599E+01   -.624E-04 0.778E-05 0.136E-03
   -.626E+02 -.626E+02 0.132E+04   0.631E+02 0.630E+02 -.132E+04   0.868E+00 0.109E+01 -.538E+01   0.603E-05 -.816E-04 0.101E-03
   -.177E+01 0.300E+02 0.128E+04   0.201E+01 -.296E+02 -.128E+04   -.470E+00 -.366E+00 -.602E+01   0.934E-04 -.386E-04 -.428E-05
   -.930E+01 -.101E+02 0.131E+04   0.993E+01 0.966E+01 -.131E+04   -.544E+00 0.579E-01 -.589E+01   0.194E-04 -.106E-04 0.636E-04
   0.189E+02 -.135E+01 0.133E+04   -.156E+02 0.153E+01 -.132E+04   -.134E+01 -.303E+00 -.610E+01   -.916E-05 -.144E-04 0.393E-04
   0.415E+02 0.636E+02 0.141E+04   -.409E+02 -.626E+02 -.140E+04   -.610E+00 -.865E+00 -.662E+01   -.957E-04 -.525E-04 -.456E-04
   -.168E+02 -.275E+02 0.133E+04   0.161E+02 0.280E+02 -.133E+04   0.115E+01 0.848E-01 -.535E+01   -.169E-04 0.785E-05 0.631E-04
   0.552E+02 -.969E+02 -.149E+04   -.556E+02 0.976E+02 0.148E+04   -.501E-01 0.187E-01 0.596E+01   -.193E-04 0.216E-04 -.258E-04
   -.594E+02 0.505E+02 -.119E+04   0.597E+02 -.510E+02 0.119E+04   0.352E+00 0.900E-01 0.535E+01   0.386E-04 0.436E-04 -.981E-04
   -.649E+02 -.185E+02 -.134E+04   0.634E+02 0.181E+02 0.133E+04   0.149E+01 0.725E+00 0.611E+01   0.361E-04 -.424E-04 -.294E-04
   -.283E+02 0.158E+01 -.131E+04   0.292E+02 -.255E+01 0.131E+04   -.498E+00 0.184E+00 0.531E+01   0.510E-04 0.459E-04 0.690E-04
   -.221E+02 -.363E+02 -.131E+04   0.220E+02 0.359E+02 0.131E+04   0.544E+00 0.274E+00 0.524E+01   -.488E-04 0.102E-03 0.275E-05
   0.743E+01 0.264E+02 -.126E+04   -.844E+01 -.264E+02 0.125E+04   0.890E+00 -.227E+00 0.696E+01   0.246E-05 0.517E-04 -.121E-03
   -.313E+02 0.760E+02 -.121E+04   0.300E+02 -.755E+02 0.121E+04   0.635E+00 -.787E+00 0.464E+01   0.100E-04 -.701E-04 -.916E-04
   0.343E+02 -.433E+02 -.129E+04   -.344E+02 0.450E+02 0.128E+04   -.893E-01 0.448E+00 0.464E+01   0.836E-05 -.102E-03 0.352E-04
   0.988E+01 -.361E+02 -.116E+04   -.107E+02 0.363E+02 0.116E+04   0.502E+00 0.549E+00 0.525E+01   0.918E-04 0.648E-04 -.115E-04
   0.238E+02 0.173E+02 -.126E+04   -.238E+02 -.181E+02 0.125E+04   0.582E-01 0.757E+00 0.532E+01   -.534E-04 -.282E-04 -.455E-04
   0.724E+02 0.425E+01 -.124E+04   -.717E+02 -.455E+01 0.124E+04   -.418E+00 0.195E+00 0.681E+01   -.107E-03 -.525E-04 -.923E-04
   0.394E+02 0.164E+02 -.114E+04   -.403E+02 -.189E+02 0.113E+04   -.105E+01 0.743E+00 0.312E+01   0.647E-04 0.141E-04 -.728E-04
   -.866E+02 0.214E+02 -.122E+04   0.878E+02 -.186E+02 0.122E+04   -.820E-01 -.211E+01 0.525E+01   -.105E-04 -.901E-05 -.742E-04
   -.561E+02 0.284E+02 -.125E+04   0.562E+02 -.281E+02 0.124E+04   0.863E+00 -.974E-01 0.547E+01   0.177E-04 -.122E-04 -.382E-04
   -.256E+02 0.738E+02 -.113E+04   0.264E+02 -.734E+02 0.112E+04   -.303E+00 -.951E+00 0.488E+01   0.689E-04 -.134E-03 0.150E-04
   0.598E+02 -.577E+02 -.126E+04   -.587E+02 0.581E+02 0.125E+04   -.913E+00 -.293E+00 0.592E+01   -.126E-03 0.111E-03 0.293E-05
   -.130E+02 -.166E+02 -.163E+04   0.105E+02 0.181E+02 0.164E+04   0.297E+01 -.174E+01 -.166E+02   0.120E-04 -.136E-05 -.250E-04
   -.456E+01 0.151E+02 -.156E+04   0.284E+01 -.177E+02 0.157E+04   0.136E+01 0.266E+01 -.164E+02   -.193E-04 0.894E-05 -.286E-04
   -.323E+02 0.817E+01 -.165E+04   0.305E+02 -.695E+01 0.166E+04   0.231E+01 -.128E+01 -.184E+02   0.670E-05 -.120E-04 -.133E-04
   0.143E+02 -.257E+02 -.162E+04   -.154E+02 0.229E+02 0.164E+04   0.117E+01 0.342E+01 -.170E+02   0.133E-04 0.185E-04 -.542E-06
   0.108E+02 -.745E+02 -.158E+04   -.100E+02 0.776E+02 0.160E+04   -.103E+01 -.258E+01 -.149E+02   0.405E-05 -.101E-04 -.111E-04
   -.177E+01 0.280E+02 -.152E+04   -.996E+00 -.290E+02 0.153E+04   0.304E+01 0.957E+00 -.146E+02   -.694E-05 0.105E-04 -.300E-04
   0.488E+02 0.775E+02 -.160E+04   -.501E+02 -.828E+02 0.162E+04   0.719E+00 0.464E+01 -.184E+02   -.104E-04 0.144E-04 -.233E-04
   -.216E+02 -.816E+01 -.161E+04   0.238E+02 0.849E+01 0.162E+04   -.231E+01 -.180E+00 -.162E+02   -.140E-04 -.148E-04 -.429E-05
   -.298E-01 -.175E+02 -.162E+04   0.217E+01 0.169E+02 0.164E+04   -.239E+01 0.777E+00 -.181E+02   0.232E-05 0.180E-04 -.747E-05
   0.466E+02 0.105E+02 -.153E+04   -.476E+02 -.103E+02 0.154E+04   0.401E+00 -.319E+00 -.149E+02   0.206E-05 -.112E-04 -.183E-04
   -.300E+02 0.647E+02 -.163E+04   0.306E+02 -.630E+02 0.165E+04   -.351E+00 -.254E+01 -.191E+02   -.843E-06 -.111E-04 -.145E-04
   0.725E+01 -.237E+02 -.156E+04   -.628E+01 0.229E+02 0.158E+04   -.829E+00 0.126E+01 -.179E+02   -.480E-05 0.543E-06 -.291E-04
   0.151E+02 -.236E+02 -.161E+04   -.174E+02 0.250E+02 0.163E+04   0.211E+01 -.143E+01 -.186E+02   -.211E-04 0.150E-04 -.295E-04
   0.247E+02 -.137E+02 -.158E+04   -.263E+02 0.185E+02 0.160E+04   0.815E+00 -.476E+01 -.168E+02   0.122E-04 0.353E-05 -.296E-04
   0.601E+02 0.228E+02 -.158E+04   -.610E+02 -.223E+02 0.160E+04   -.540E+00 -.241E+00 -.178E+02   0.114E-04 -.202E-04 -.359E-05
   -.519E+02 -.469E+02 -.167E+04   0.551E+02 0.486E+02 0.169E+04   -.262E+01 -.106E+01 -.215E+02   0.935E-05 -.150E-05 -.159E-04
   -.296E+02 -.331E+02 0.162E+04   0.320E+02 0.333E+02 -.164E+04   -.229E+01 -.151E+00 0.188E+02   -.844E-05 -.149E-04 0.337E-04
   -.478E+02 -.629E+01 0.158E+04   0.472E+02 0.494E+01 -.159E+04   0.138E+01 0.166E+01 0.167E+02   -.315E-05 0.200E-05 0.333E-04
   -.566E+02 0.512E+02 0.158E+04   0.563E+02 -.521E+02 -.160E+04   0.157E+01 0.324E+00 0.185E+02   -.413E-05 0.173E-04 0.379E-04
   0.469E+02 -.505E+02 0.160E+04   -.482E+02 0.543E+02 -.162E+04   0.894E+00 -.362E+01 0.188E+02   0.259E-04 0.110E-06 0.371E-04
   0.215E+02 -.628E+02 0.160E+04   -.214E+02 0.661E+02 -.162E+04   0.767E-01 -.227E+01 0.192E+02   0.156E-04 -.204E-04 0.365E-04
   -.524E+01 0.340E+02 0.158E+04   0.876E+01 -.344E+02 -.160E+04   -.318E+01 0.527E-02 0.161E+02   -.983E-05 0.125E-04 0.536E-04
   0.689E+02 0.181E+02 0.154E+04   -.747E+02 -.172E+02 -.155E+04   0.454E+01 -.154E+01 0.141E+02   -.646E-05 -.383E-05 0.576E-04
   -.316E+02 -.320E+02 0.160E+04   0.297E+02 0.360E+02 -.162E+04   0.236E+01 -.348E+01 0.169E+02   -.628E-05 0.522E-05 0.126E-04
   -.377E+02 0.100E+02 0.159E+04   0.405E+02 -.108E+02 -.161E+04   -.220E+01 0.747E+00 0.164E+02   0.143E-04 -.522E-05 0.266E-04
   0.792E+01 -.127E+02 0.163E+04   -.728E+01 0.110E+02 -.165E+04   -.465E+00 0.249E+01 0.181E+02   0.155E-04 -.996E-05 0.459E-04
   -.258E+02 -.104E+02 0.165E+04   0.269E+02 0.114E+02 -.166E+04   -.689E+00 -.106E+01 0.170E+02   -.566E-06 0.125E-04 0.480E-04
   0.742E+01 0.142E+02 0.163E+04   -.933E+01 -.152E+02 -.165E+04   0.212E+01 0.671E+00 0.173E+02   -.340E-05 0.267E-04 0.230E-04
   -.210E+02 -.839E+00 0.156E+04   0.220E+02 0.124E+01 -.158E+04   -.603E+00 -.444E+00 0.162E+02   -.103E-04 -.106E-04 0.175E-04
   -.288E+02 0.447E+01 0.160E+04   0.318E+02 -.297E+01 -.162E+04   -.280E+01 -.170E+01 0.173E+02   -.873E-05 -.974E-05 0.261E-04
   0.514E+02 0.351E+02 0.163E+04   -.496E+02 -.378E+02 -.164E+04   -.326E+01 0.230E+01 0.163E+02   0.353E-05 0.399E-06 0.332E-04
   -.700E+01 -.442E+02 0.149E+04   0.101E+02 0.487E+02 -.150E+04   -.311E+01 -.368E+01 0.121E+02   -.225E-04 0.285E-05 0.148E-04
   0.305E+02 -.411E+02 -.428E+02   -.303E+02 0.410E+02 0.430E+02   -.153E+01 0.118E+01 0.248E+00   -.563E-05 0.527E-05 0.190E-05
   -.189E+02 -.189E+02 -.181E+02   0.188E+02 0.188E+02 0.184E+02   0.274E+00 0.540E+00 -.977E+00   -.722E-05 0.347E-05 0.814E-05
   -.114E+02 0.161E+02 0.984E+01   0.111E+02 -.161E+02 -.995E+01   0.175E+01 -.578E+00 -.778E-01   0.223E-05 -.207E-05 0.184E-04
   -.540E+01 -.897E+01 0.837E+01   0.536E+01 0.912E+01 -.836E+01   0.701E+00 0.300E+00 -.474E+00   0.633E-05 -.921E-05 0.111E-05
   0.269E+02 -.309E+02 -.364E+02   -.268E+02 0.310E+02 0.363E+02   -.405E+00 -.349E+00 0.615E+00   0.137E-05 0.328E-05 -.198E-05
   0.119E+02 0.124E+02 -.286E+02   -.119E+02 -.124E+02 0.288E+02   -.504E-01 -.728E-01 -.792E+00   -.395E-05 0.117E-04 -.172E-06
   -.147E+02 -.420E+01 -.733E+01   0.150E+02 0.405E+01 0.744E+01   -.922E+00 0.420E+00 -.420E+00   0.772E-06 -.144E-05 0.613E-05
   -.189E+02 0.376E+01 -.497E+02   0.188E+02 -.349E+01 0.498E+02   0.935E+00 -.853E+00 0.378E+00   0.527E-05 -.166E-04 -.497E-06
   -.370E+01 0.100E+02 -.175E+02   0.374E+01 -.102E+02 0.176E+02   0.541E+00 0.925E+00 0.347E+00   0.124E-05 0.151E-04 -.794E-05
   0.142E+02 -.194E+02 0.960E+00   -.141E+02 0.193E+02 -.108E+01   -.578E+00 0.378E+00 0.755E+00   0.491E-05 0.573E-05 0.405E-05
   0.108E+02 0.159E+02 0.181E+02   -.104E+02 -.160E+02 -.183E+02   -.131E+01 0.465E+00 0.699E+00   -.443E-05 -.378E-06 0.583E-05
   -.244E+02 -.102E+02 0.383E+02   0.245E+02 0.102E+02 -.385E+02   0.106E+00 0.602E+00 0.797E+00   -.114E-05 -.845E-05 0.478E-05
   -.142E+02 -.791E+01 0.689E+02   0.141E+02 0.809E+01 -.694E+02   0.463E+00 -.637E+00 0.174E+01   0.488E-05 0.118E-05 0.125E-04
   -.313E+01 0.332E+01 0.175E+01   0.320E+01 -.339E+01 -.163E+01   -.328E+00 -.120E+00 -.588E+00   0.213E-05 0.472E-06 0.776E-05
   0.107E+02 0.176E+02 0.340E+02   -.106E+02 -.174E+02 -.338E+02   -.505E+00 -.131E+01 -.192E+00   -.481E-05 -.120E-04 -.116E-05
   0.107E+02 0.155E+02 0.200E+02   -.107E+02 -.156E+02 -.199E+02   -.939E-01 0.139E+00 -.777E+00   -.119E-04 0.397E-05 0.308E-05
 -----------------------------------------------------------------------------------------------
   0.322E+01 0.168E+02 0.852E+01   0.211E-12 0.131E-12 -.400E-11   -.323E+01 -.168E+02 -.852E+01   0.350E-06 0.185E-04 0.601E-03
 
 
 POSITION                                       TOTAL-FORCE (eV/Angst)
 -----------------------------------------------------------------------------------
     -0.02830      1.86482     12.18564        -0.002005     -0.151227     -0.179657
     -1.64690      4.92533     12.17261        -0.906269     -1.193368     -0.450976
     -3.20586      7.82760     12.12179        -1.324648     -0.794807      0.343601
     -4.91407     10.54686     12.30917        -0.067616     -0.297374     -1.402092
      3.33338      1.98306     12.25166        -0.599851     -0.251288     -0.853699
      1.60354      4.74270     12.09372         0.247003     -0.659726      0.769590
     -0.08249      7.63785     12.15441         0.362489     -0.313085      0.303767
     -1.69133     10.59066     12.24121         0.244921     -1.931951     -0.620357
      6.59263      1.82371     12.18764        -0.170053      0.133006     -0.789172
      5.08631      4.78986     12.08019        -1.244925     -0.631132     -0.446531
      3.25200      7.44428     12.04060         1.360265      1.535536      0.803150
      1.59887     10.34013     12.14493        -0.227742     -0.019020     -0.982750
      9.83002      1.99105     12.10462         0.080881     -0.341284     -0.623361
      8.11916      4.77097     12.09173         1.916340     -0.119075     -0.332833
      6.67872      7.59317     12.04333        -0.026159      0.080489      0.439790
      4.84077     10.34134     12.06705         0.440217      0.629974     -0.061471
      1.62061      0.89751     14.94574        -0.477672      0.750459     -0.979901
     -0.07425      3.80758     14.63125         0.665523     -0.406090      0.807324
     -1.76525      6.59503     14.73971        -0.011094      0.390307     -0.296573
     -3.27982      9.55340     14.72898         0.320183     -0.792475      0.654219
      4.97616      0.93017     14.71819         0.431098     -0.102085      0.889107
      3.33456      3.83510     14.63056        -0.117717     -0.160637      0.302478
      1.82123      6.67920     14.65911        -0.672894     -0.238801      0.206482
      0.05608      9.23401     14.74296        -0.194607      2.108419     -0.200589
      8.21749      0.78492     14.56238        -0.361455      0.669777      1.718161
      6.64149      3.73328     14.66035         0.005073     -0.050780      0.535065
      5.00459      6.68392     14.61806         0.239439     -0.111723     -0.038340
      3.47590      9.58281     14.64351        -1.892098     -1.680478      0.634378
     11.36533      0.94157     14.65731         1.134957      0.651474      0.783646
      9.74588      3.75571     14.67031         0.935495      0.235239      0.190493
      8.23704      6.72564     14.56719         0.500046     -0.576987      0.736257
      6.56257      9.43584     14.68383         0.279049      0.130437      0.489196
     -0.15611      1.92854     16.09402         0.439780     -0.250691     -1.217250
     -1.58962      4.74500     15.76563        -0.369390      0.088045      0.404689
     -3.38266      7.57835     15.98706         0.469200     -0.063607     -0.949603
     -4.95502     10.26078     15.90746         0.101212      0.606412      0.131120
      3.38342      1.75313     15.86845        -0.231003      0.523908      0.244183
      1.67131      4.75649     15.71466         0.268071      0.030720      0.227226
      0.29470      7.56411     15.85239        -0.582257     -0.587709      0.263320
     -1.58867     10.33536     15.92097        -0.109482      0.151107     -0.463268
      6.66829      1.81458     15.97141        -0.249926      0.220457     -1.148615
      5.15345      4.81627     15.67821        -0.649669     -0.126789      0.585426
      3.20215      7.83060     16.00775         0.242642     -0.809687     -1.299113
      1.64482     10.30238     15.81592         0.142463      0.387574     -0.539950
      9.83259      1.77342     15.91448        -0.216422     -0.003926     -0.748665
      8.30949      4.73606     15.79246        -0.766621     -0.021095      0.150144
      6.81451      7.52497     15.74693        -1.521254      0.238735      0.711926
      4.80984     10.18104     16.06922         0.539948      0.588692     -0.938648
      1.40599      0.85980     10.82592         0.153858      0.115020      1.261633
     -0.44054      3.63220     10.94233         0.831632      0.304501      0.354138
     -1.84506      6.75912     11.04542         1.229539     -0.563717     -0.404542
     -3.19137      9.59033     11.01727        -0.402937      0.177293      0.123416
      4.81694      0.81956     11.01420         0.108120      1.029000     -0.135387
      3.14356      3.85450     10.94601         0.344507     -0.385310      0.209851
      1.71622      6.62535     11.14011        -1.244353     -0.613379     -1.680801
     -0.24765      9.32987     10.96739         0.457532      0.518887      0.107390
      8.03282      0.88312     10.99756         0.535146     -0.044848     -0.138260
      6.49293      3.53955     10.86488         0.182604      0.793150      0.550288
      4.85630      6.59873     10.80548         0.369208      0.002829      0.511751
      3.23460      9.51632     10.84663         0.213783     -0.279365      0.586798
     11.36894      0.91851     11.00763         0.405298     -0.041191      0.118185
      9.69361      3.86112     10.89652         0.193044     -0.206150      0.617536
      8.56998      6.78282     10.87249        -1.409615     -0.327172      0.320043
      6.58683      9.43573     11.24714        -0.049155      0.890058     -1.589712
     -6.46941     11.30299     13.52020        -1.315145      1.139532      0.377081
     11.41182      2.75070     13.50012         0.212417      0.370610     -0.691069
      9.74460      5.71552     13.42885         1.461805     -0.535736     -0.196118
      8.17460      8.55915     13.42236         0.654079      0.448464     -0.464839
      3.30532      0.08580     13.49896        -0.369435     -0.205813      0.501310
      1.64696      2.84104     13.48597        -0.049721     -0.021241     -0.565999
      0.02262      5.65866     13.38811        -0.666785      0.263568     -0.314049
     -1.71013      8.57088     13.49116         0.796740     -0.585890      0.479748
     -0.01350     11.25644     13.40307         0.578146      0.725514      0.471292
      5.01341      2.81376     13.38242        -0.482015      0.344703      0.632831
      3.44890      5.64391     13.33038        -0.902696      0.335928      0.580198
      1.62529      8.41117     13.29402         0.170166      0.515034      0.617693
      9.80114      0.00082     13.25724         0.368503     -0.458885      1.212479
      8.20247      2.83902     13.41952        -0.261830     -0.189594     -0.476125
      6.61217      5.80443     13.27748        -0.365223     -1.034897     -0.035644
      4.93241      8.52528     13.43244        -0.120684      0.055224     -0.702442
 -----------------------------------------------------------------------------------
    total drift:                               -0.004430      0.004869     -0.007040


--------------------------------------------------------------------------------------------------------



  FREE ENERGIE OF THE ION-ELECTRON SYSTEM (eV)
  ---------------------------------------------------
  free  energy   TOTEN  =      -594.24372668 eV

  energy  without entropy=     -594.24372668  energy(sigma->0) =     -594.24372668
 


--------------------------------------------------------------------------------------------------------


    POTLOK:  cpu time    0.7820: real time    0.7820


--------------------------------------------------------------------------------------------------------


     LOOP+:  cpu time 1812.5815: real time 1813.0300
    4ORBIT:  cpu time    0.0000: real time    0.0000

 total amount of memory used by VASP MPI-rank0   234629. kBytes
=======================================================================

   base      :      30000. kBytes
   nonlr-proj:      19361. kBytes
   fftplans  :      66973. kBytes
   grid      :      38377. kBytes
   one-center:        108. kBytes
   wavefun   :      79810. kBytes
 
  
  
 General timing and accounting informations for this job:
 ========================================================
  
                  Total CPU time used (sec):     1843.813
                            User time (sec):     1835.602
                          System time (sec):        8.211
                         Elapsed time (sec):     1844.440
  
                   Maximum memory used (kb):      436936.
                   Average memory used (kb):           0.
  
                          Minor page faults:       226154
                          Major page faults:            0
                 Voluntary context switches:         2448
