 running on   52 total cores
 distrk:  each k-point on   52 cores,    1 groups
 distr:  one band on   13 cores,    4 groups
 using from now: INCAR     
 vasp.5.4.4.18Apr17-6-g9f103f2a35 (build Oct 31 2019 15:01:46) complex          
  
 POSCAR found type information on POSCAR  Sc F  C 
 POSCAR found :  3 types and      80 ions
 scaLAPACK is switched off
 LDA part: xc-table for Pade appr. of Perdew
 generate k-points for:    3    3    1
 POSCAR, INCAR and KPOINTS ok, starting setup
 FFT: planning ...
 WAVECAR not read
 entering main loop
       N       E                     dE             d eps       ncg     rms          rms(c)
DAV:   1     0.136582461194E+05    0.13658E+05   -0.27898E+05  4256   0.156E+03
DAV:   2     0.250347460844E+04   -0.11155E+05   -0.10851E+05  4608   0.532E+02
DAV:   3    -0.373033706477E+03   -0.28765E+04   -0.27598E+04  6824   0.294E+02
DAV:   4    -0.735878537500E+03   -0.36284E+03   -0.35852E+03  6056   0.140E+02
DAV:   5    -0.750548759101E+03   -0.14670E+02   -0.14605E+02  6080   0.355E+01    0.782E+01
DAV:   6    -0.594847489489E+03    0.15570E+03   -0.84343E+02  5784   0.649E+01    0.259E+01
DAV:   7    -0.594764188736E+03    0.83301E-01   -0.54848E+01  5912   0.218E+01    0.169E+01
DAV:   8    -0.593228703032E+03    0.15355E+01   -0.10139E+01  5552   0.890E+00    0.466E+00
DAV:   9    -0.592741759027E+03    0.48694E+00   -0.23994E+00  5472   0.523E+00    0.225E+00
DAV:  10    -0.592703204654E+03    0.38554E-01   -0.34491E-01  5928   0.176E+00    0.128E+00
DAV:  11    -0.592592976800E+03    0.11023E+00   -0.13949E-01  5456   0.115E+00    0.836E-01
DAV:  12    -0.592556450160E+03    0.36527E-01   -0.53576E-02  6024   0.559E-01    0.332E-01
DAV:  13    -0.592549213395E+03    0.72368E-02   -0.23453E-02  5920   0.370E-01    0.252E-01
DAV:  14    -0.592545867908E+03    0.33455E-02   -0.11270E-02  5568   0.246E-01    0.138E-01
DAV:  15    -0.592550996137E+03   -0.51282E-02   -0.82729E-03  5760   0.184E-01    0.115E-01
DAV:  16    -0.592554886456E+03   -0.38903E-02   -0.25865E-03  5736   0.133E-01    0.761E-02
DAV:  17    -0.592560205095E+03   -0.53186E-02   -0.16958E-03  5824   0.828E-02    0.731E-02
DAV:  18    -0.592563469622E+03   -0.32645E-02   -0.69691E-04  5368   0.665E-02    0.374E-02
DAV:  19    -0.592565300510E+03   -0.18309E-02   -0.23259E-04  5712   0.347E-02    0.207E-02
DAV:  20    -0.592568666416E+03   -0.33659E-02   -0.14280E-04  5096   0.211E-02    0.183E-02
DAV:  21    -0.592570536577E+03   -0.18702E-02   -0.97671E-05  4408   0.151E-02    0.999E-03
DAV:  22    -0.592571663554E+03   -0.11270E-02   -0.75097E-05  4568   0.127E-02    0.720E-03
DAV:  23    -0.592572020759E+03   -0.35721E-03   -0.10704E-05  4552   0.745E-03    0.476E-03
DAV:  24    -0.592572367587E+03   -0.34683E-03   -0.16724E-05  4408   0.646E-03    0.342E-03
DAV:  25    -0.592572523589E+03   -0.15600E-03   -0.41546E-06  3944   0.393E-03    0.195E-03
DAV:  26    -0.592572582379E+03   -0.58790E-04   -0.18658E-06  3144   0.296E-03    0.138E-03
DAV:  27    -0.592572604796E+03   -0.22417E-04   -0.44478E-07  2640   0.233E-03    0.111E-03
DAV:  28    -0.592572635897E+03   -0.31101E-04   -0.77817E-07  2976   0.159E-03    0.848E-04
DAV:  29    -0.592572641942E+03   -0.60453E-05   -0.24954E-07  2640   0.163E-03    0.657E-04
DAV:  30    -0.592572646786E+03   -0.48443E-05   -0.21227E-07  2544   0.109E-03    0.583E-04
DAV:  31    -0.592572650387E+03   -0.36004E-05   -0.15715E-07  2672   0.125E-03    0.630E-04
DAV:  32    -0.592572651257E+03   -0.86981E-06   -0.89918E-08  2520   0.766E-04
   1 F= -.59257265E+03 E0= -.59257265E+03  d E =-.259136E-12
