 running on   52 total cores
 distrk:  each k-point on   52 cores,    1 groups
 distr:  one band on   13 cores,    4 groups
 using from now: INCAR     
 vasp.5.4.4.18Apr17-6-g9f103f2a35 (build Oct 31 2019 15:01:46) complex          
  
 POSCAR found type information on POSCAR  Ca Si O 
 POSCAR found :  3 types and     135 ions
 scaLAPACK is switched off
 LDA part: xc-table for Pade appr. of Perdew
 generate k-points for:    2    2    2
 POSCAR, INCAR and KPOINTS ok, starting setup
 FFT: planning ...
 WAVECAR not read
 entering main loop
       N       E                     dE             d eps       ncg     rms          rms(c)
DAV:   1     0.996427188970E+04    0.99643E+04   -0.48917E+05  8320   0.188E+03
DAV:   2     0.233056181358E+03   -0.97312E+04   -0.93409E+04  9448   0.515E+02
DAV:   3    -0.929893799915E+03   -0.11629E+04   -0.11506E+04 10368   0.175E+02
DAV:   4    -0.986674849604E+03   -0.56781E+02   -0.56541E+02 11408   0.350E+01
DAV:   5    -0.991627847014E+03   -0.49530E+01   -0.49496E+01 13968   0.830E+00    0.853E+01
DAV:   6    -0.848617896985E+03    0.14301E+03   -0.62180E+02  9816   0.405E+01    0.369E+01
DAV:   7    -0.850461042552E+03   -0.18431E+01   -0.76080E+01 10360   0.150E+01    0.175E+01
DAV:   8    -0.849423171319E+03    0.10379E+01   -0.93261E+00 11216   0.611E+00    0.874E+00
DAV:   9    -0.849237934685E+03    0.18524E+00   -0.23094E+00 10920   0.357E+00    0.432E+00
DAV:  10    -0.849326007407E+03   -0.88073E-01   -0.15651E+00 11288   0.236E+00    0.263E+00
DAV:  11    -0.849236035633E+03    0.89972E-01   -0.42389E-01 10216   0.134E+00    0.174E+00
DAV:  12    -0.849215566466E+03    0.20469E-01   -0.16793E-01 11032   0.788E-01    0.939E-01
DAV:  13    -0.849214422509E+03    0.11440E-02   -0.43377E-02 10352   0.449E-01    0.725E-01
DAV:  14    -0.849216021336E+03   -0.15988E-02   -0.33107E-02 10920   0.275E-01    0.482E-01
DAV:  15    -0.849214624655E+03    0.13967E-02   -0.58854E-03  9936   0.147E-01    0.194E-01
DAV:  16    -0.849214911531E+03   -0.28688E-03   -0.32580E-03 11088   0.989E-02    0.127E-01
DAV:  17    -0.849214875286E+03    0.36245E-04   -0.64738E-04 10680   0.604E-02    0.750E-02
DAV:  18    -0.849214885571E+03   -0.10285E-04   -0.24685E-04 10616   0.272E-02    0.279E-02
DAV:  19    -0.849214899354E+03   -0.13783E-04   -0.58624E-05 10128   0.163E-02    0.275E-02
DAV:  20    -0.849214897314E+03    0.20405E-05   -0.24086E-05 11944   0.999E-03    0.137E-02
DAV:  21    -0.849214896587E+03    0.72697E-06   -0.56063E-06  8984   0.575E-03
   1 F= -.84921490E+03 E0= -.84920619E+03  d E =-.174068E-01
