135
Time=99999.99999996 pbc="T T T" Lattice="10.26287559 0.00000000 0.00000000 0.00000000 10.26287559 0.00000000 0.00000000 0.00000000 10.26287559" energy=-839.93694930 virial="507.54533294 -32.29064738 9.37330743 -32.29064738 565.00624132 37.92300330 9.37330743 37.92300330 558.90180566" stress="0.51258334 -0.02987236 0.00867133 -0.02987236 0.56574093 0.03508290 0.00867133 0.03508290 0.56009366" Properties=species:S:1:pos:R:3
Ca 5.27517230 10.19220787 7.17290309
Ca 0.17192708 4.42799817 10.04081465
Ca 4.81628575 1.85144035 2.20487162
Ca 4.64451678 4.73276816 5.46541249
Ca 5.87371845 5.59714449 0.55243867
Ca 7.83156798 6.13545586 8.22947981
Ca 1.81889733 9.59477922 7.15044912
Ca 1.05129637 2.08837964 6.87130981
Ca 7.61889498 0.66253925 1.76362756
Ca 10.12328630 7.44074421 3.07632587
Ca 3.95169527 7.80034901 9.00428882
Ca 4.03793326 5.82864678 3.20456788
Ca 5.83929896 7.68768931 6.82956471
Ca 7.55623792 10.02730712 4.06970444
Ca 10.25543849 6.04331912 6.12448803
Ca 2.20247819 4.69585852 8.10750416
Ca 0.07913845 9.19183559 5.39971687
Ca 2.23863641 2.98191706 2.23262094
Ca 6.95752989 2.90625966 7.16739603
Ca 9.09965867 1.39826975 9.17801061
Ca 4.85457774 3.09752558 9.95218482
Ca 2.24313655 7.71276869 1.44967033
Ca 8.47377535 8.27803231 1.30970574
Ca 3.15082608 10.04323054 2.39156719
Ca 3.67038574 0.34601711 9.57988593
Ca 9.27853426 3.55780223 4.37948001
Ca 0.53749815 7.24300457 9.34665966
Si 7.63430986 3.50255699 10.10821573
Si 5.97188691 0.78866253 9.30765430
Si 5.07578852 5.30778151 8.28365863
Si 1.74066745 4.29721215 5.23998770
Si 2.96624075 0.94963351 4.95510686
Si 0.12703227 1.26704377 3.72579520
Si 1.27507837 5.29908762 2.84872918
Si 9.54766307 2.83016708 1.78387927
Si 8.42977795 0.91873088 6.25773023
Si 0.64911305 9.75598126 9.90193848
Si 5.86126234 1.89262964 4.47242622
Si 9.03220268 9.03752714 7.66932480
Si 1.74454454 2.28193881 9.88699367
Si 6.88923056 6.54806144 3.44095542
Si 2.39937033 8.14840862 4.11717529
Si 3.11631870 5.24570316 0.64611302
Si 0.33796467 9.90802515 1.85747368
Si 9.61404684 4.10926654 7.69392880
Si 4.95432864 8.21153686 1.52015613
Si 2.84318238 6.91231289 6.47963526
Si 7.37326873 5.41887967 5.33500001
Si 7.89878851 7.98908023 5.03755375
Si 7.01004084 8.57988193 9.70582451
Si 3.81179986 2.45473053 7.24102090
Si 6.45487306 3.78260999 2.96899599
Si 4.95768995 9.02883707 3.93944828
Si 8.82980644 5.40936837 2.00498606
O 4.83383554 2.59571714 5.83226016
O 8.34273826 4.96545255 0.29414945
O 4.93366318 1.57625023 8.31934621
O 3.29878101 9.56763136 4.49534446
O 7.59282262 6.85583087 6.22364874
O 9.21887580 1.04783224 4.90148692
O 6.88864745 1.65348204 5.60578990
O 6.75733285 2.29259984 9.14340767
O 0.76010178 2.48849797 4.52678617
O 2.26087711 3.80326657 10.10242718
O 7.76326615 6.66774786 1.99520195
O 9.81239239 9.24463814 9.09946618
O 4.97574353 3.35650864 3.78126892
O 3.33560445 1.82704061 3.51007251
O 3.70638881 6.90946132 4.89773264
O 2.09896585 6.82393963 3.25547481
O 2.45104408 6.57091212 9.94639893
O 6.46952736 8.62057177 0.91321371
O 8.15465047 9.30074834 6.11465962
O 10.04586893 7.90141830 7.29810663
O 1.74731582 7.89481095 5.51648507
O 4.32856593 6.81675133 1.06880659
O 5.75753506 0.75554815 0.58904197
O 1.40705662 0.45076540 4.93724787
O 8.41360116 3.68179244 8.66275671
O 4.83642938 0.53159735 4.84425412
O 5.93883212 6.46945437 4.68924025
O 9.61692640 0.09737006 0.67887819
O 4.37944112 4.38517419 1.57306976
O 6.02694646 5.28149342 2.92597349
O 2.71560905 1.85006627 8.52268898
O 2.77782153 2.99088304 5.70380564
O 7.05903559 3.79792985 4.67628447
O 0.96560932 0.96351945 9.31918646
O 1.28360596 9.03750337 3.45296014
O 0.31564320 8.21491126 1.07134055
O 0.57157729 2.49063474 0.91179484
O 5.91004963 7.12844987 8.95616647
O 1.09717573 1.08640568 2.36897604
O 8.55051934 2.54105209 0.70483704
O 5.49957364 9.92643920 2.72054802
O 5.75694203 7.82153428 2.92304358
O 1.79396962 6.60793277 7.72602280
O 8.04835700 5.75819432 3.95447047
O 6.23873835 5.24115993 6.96151349
O 6.31536828 4.42730871 9.12882379
O 8.02434069 8.16611129 3.38957635
O 0.38619298 4.00656507 6.38181185
O 6.31250871 8.87338944 5.05208078
O 7.50390340 8.34613953 8.07205586
O 0.30050803 3.92410304 2.16199214
O 6.36351509 3.34294286 1.15205717
O 9.09011107 2.31483672 6.63287985
O 0.62279554 3.25155031 8.48800102
O 10.22655295 5.46539488 8.41649239
O 1.93366004 5.49094316 1.49549115
O 1.76287659 10.03889465 0.78419124
O 1.96918842 8.92946547 9.18216593
O 6.85616617 1.91805156 3.17079439
O 0.25314649 5.45731364 3.95824962
O 8.04373790 7.56858455 9.97553425
O 2.38564170 5.37431712 6.08917082
O 8.45426587 4.58859483 6.37920037
O 3.99106028 6.13036635 7.21222605
O 9.46390459 9.79274664 3.11292998
O 2.83804556 1.66334579 0.94438359
O 7.22494645 0.61902170 8.03892269
O 3.74097603 8.33952656 2.70801358
O 3.88837311 8.83301661 7.04618625
O 10.17325609 6.11114589 1.38853749
O 4.23956039 3.94724491 7.97815530
O 5.40939048 9.61973627 9.04098101
O 3.82252042 9.00927659 0.44005392
O 9.47387934 7.45250169 4.88438822
O 8.21306921 4.06966583 2.54319993
O 9.14160564 1.94977934 2.92051851
O 3.27569142 0.94051705 6.55413294
O 4.24581360 5.07033993 9.90276772
O 2.38873027 4.49301472 3.68386673
O 7.65150751 10.17285921 9.94918674
O 9.67126391 0.33120776 7.14546124
135
Time=199999.99999918 pbc="T T T" Lattice="10.26287559 0.00000000 0.00000000 0.00000000 10.26287559 0.00000000 0.00000000 0.00000000 10.26287559" energy=-833.19155786 virial="583.83425635 -63.48332803 -32.26837624 -63.48332803 522.57563011 48.14003915 -32.26837624 48.14003915 578.15013329" stress="0.58315889 -0.05872898 -0.02985176 -0.05872898 0.52648800 0.04453477 -0.02985176 0.04453477 0.57790046" Properties=species:S:1:pos:R:3
Ca 5.37278541 9.90650607 6.83489381
Ca 0.17918335 4.52618780 10.01039073
Ca 4.88041397 2.07170663 2.44519688
Ca 4.27186490 4.34681760 5.00011027
Ca 5.90703256 5.99193856 0.21561839
Ca 7.67682594 5.71572825 8.07674125
Ca 1.80586021 9.09674659 7.13377862
Ca 0.99450572 1.56899896 6.67971310
Ca 7.47859189 1.13666813 1.48278254
Ca 10.06200818 7.36877839 3.21736566
Ca 3.56583490 7.57034469 9.01117713
Ca 4.18199463 5.65191325 3.20032818
Ca 5.58503334 7.45687759 6.27532003
Ca 7.84496010 0.11350939 3.89430971
Ca 0.13100259 6.44445145 5.85050241
Ca 2.35003500 4.46520854 7.77524100
Ca 10.22869674 9.47764849 5.60321683
Ca 2.42545325 2.86329967 1.66211321
Ca 6.91681549 2.98533817 7.29516988
Ca 9.18662773 1.68234418 9.19038016
Ca 4.73575457 2.96982310 9.69525388
Ca 1.88726579 7.46869127 0.96464866
Ca 7.98119308 8.91706480 1.28865379
Ca 3.05353148 0.24146815 2.06756235
Ca 3.23695831 0.09133079 9.39705073
Ca 9.33816721 3.60305947 4.43563225
Ca 10.21495094 7.24323822 9.44625420
Si 7.41259307 3.67013916 9.92803026
Si 6.30673640 0.81980860 9.27843463
Si 5.09448688 5.12348199 8.00106432
Si 1.34586022 4.10880540 4.95393581
Si 3.30054340 1.10640763 5.02671555
Si 0.37375816 1.08061479 4.02027611
Si 1.09186622 5.05856653 2.78323418
Si 9.87466156 2.21111704 1.59529774
Si 8.19480108 0.94580877 6.64161702
Si 0.57453861 10.06196250 9.81493987
Si 6.08065544 2.28744784 4.57036593
Si 8.66392543 9.10311695 8.15917554
Si 1.77570598 2.33361295 9.34508360
Si 6.81473505 6.71625963 3.26246545
Si 2.68020292 8.14295930 3.80837748
Si 3.07493289 5.35549888 0.39823189
Si 0.46879891 9.71908114 2.26604335
Si 9.68842618 3.93628543 7.43198040
Si 4.80244701 8.10968901 1.65372988
Si 2.94077643 6.78869718 6.12293554
Si 7.25944492 5.30208773 5.41106464
Si 7.82034617 7.87760536 5.19971846
Si 6.21625816 8.57567745 9.34707118
Si 4.19035390 2.30352537 7.13342893
Si 6.87718645 4.01753003 2.94792838
Si 4.96663687 9.57642960 3.80968251
Si 8.81176395 5.48098127 1.50493386
O 5.20128053 2.51704306 6.03125440
O 6.13756256 5.50913395 2.26635368
O 4.83440078 1.20586506 8.31020523
O 3.67231299 9.82974839 4.69687275
O 7.48750100 6.92778908 6.22253202
O 1.45863860 8.61157030 9.18924938
O 7.13110728 1.27989700 5.38216678
O 7.11085533 2.33050798 9.12456076
O 0.69295941 2.84312387 4.05418847
O 2.09862774 3.85927190 10.15494114
O 8.17772161 6.77543635 2.06393690
O 7.94868103 5.03337516 0.29242342
O 5.43822728 3.74597949 3.79936403
O 3.31150613 1.74860038 3.61927028
O 3.74859824 7.08067911 4.52396997
O 1.70565682 6.82938437 2.91336213
O 1.69200465 6.30298093 9.67867898
O 6.03737592 7.92778252 0.74853545
O 9.61113991 1.08792344 5.36054448
O 9.60482262 8.03409622 7.48559780
O 1.59361094 7.99648249 5.15940377
O 3.89216553 6.68663367 1.23934585
O 5.23340154 0.90352510 0.25682182
O 1.56352577 0.60041650 5.01369519
O 8.69257355 3.96296045 8.79198939
O 6.03975610 9.10539506 5.01924765
O 5.81933622 6.13777666 4.50744598
O 9.67975345 0.37167210 1.27695700
O 3.98158735 4.40885416 1.51876529
O 5.35232200 7.51813622 3.09992333
O 2.87427108 2.13220976 8.18208849
O 2.98523140 2.55129693 5.84785885
O 7.20562794 3.56975298 5.22606431
O 0.97529161 0.88825401 8.64101507
O 1.76339639 9.17504425 3.02891588
O 1.68012449 10.08656618 0.37115077
O 0.81114045 2.11992770 0.43015209
O 5.49816981 6.96051497 8.45849180
O 1.04856990 1.25158124 2.41996245
O 8.56798378 2.70683821 0.68323007
O 7.98188620 9.43517127 5.91657625
O 3.88433542 8.81607319 2.74408844
O 1.79906107 6.74829125 7.52872122
O 8.00738472 5.46840284 4.03181700
O 6.14463408 4.89346925 6.76060467
O 6.45737356 4.64185719 9.06460563
O 7.32469357 8.29698098 3.36750790
O 0.60849045 3.69826488 6.13730397
O 9.27223519 0.15729690 7.47946989
O 7.08639926 8.63505011 7.99893224
O 10.01293739 3.88411188 1.85517019
O 6.40387734 3.37498748 0.87591721
O 9.15197428 2.40004917 6.95352606
O 0.52213310 3.27028719 8.25922287
O 10.14475055 5.50586280 7.96032815
O 1.78973259 5.09722928 1.60888609
O 3.66134604 8.96811886 0.78391991
O 10.15314930 8.42480857 1.61642816
O 7.01240082 2.26698138 3.07632952
O 0.24285339 5.15049292 4.16740237
O 8.07656925 7.59091025 9.73436766
O 2.08941945 5.51101905 5.66703591
O 8.91707431 5.02293219 5.87094446
O 4.24103247 5.83459530 6.77181682
O 9.85758663 9.65472666 3.65497486
O 3.24742682 1.76006318 0.24445290
O 6.81396949 0.80491334 7.54183986
O 5.07843111 0.98639665 4.48166801
O 3.79049279 8.21630140 6.72539851
O 10.17934104 6.11272765 1.65627396
O 4.37895953 3.70377286 7.95921032
O 5.00938359 9.24500083 9.26562262
O 5.94973819 10.23401920 2.49096937
O 9.25786020 7.70508854 4.83456687
O 8.41850587 4.20509238 2.47138725
O 9.09398590 1.81048196 3.03056909
O 3.08897139 0.55446089 6.73570538
O 3.93145840 5.31409538 9.18720813
O 2.37776884 4.52185849 3.77776011
O 7.23579443 9.93723632 9.56874240
O 9.39744482 9.71181202 9.46564746
135
Time=299999.99999840 pbc="T T T" Lattice="10.26287559 0.00000000 0.00000000 0.00000000 10.26287559 0.00000000 0.00000000 0.00000000 10.26287559" energy=-829.17696757 virial="551.16692751 68.70322476 50.98120808 68.70322476 579.94393462 25.96574017 50.98120808 25.96574017 553.28927558" stress="0.55293806 0.06355796 0.04716316 0.06355796 0.57955992 0.02402113 0.04716316 0.02402113 0.55490146" Properties=species:S:1:pos:R:3
Ca 5.14947037 0.07868863 6.79361650
Ca 0.12963780 4.65977280 0.58719259
Ca 1.47621454 0.04710036 1.42567243
Ca 5.52768677 4.72151010 5.21019519
Ca 5.71680153 6.23023924 1.01035354
Ca 8.00474543 6.00628896 9.00655466
Ca 2.43702737 9.36492838 5.99505878
Ca 1.33976664 1.91591141 7.34560979
Ca 6.80509463 1.43510161 1.46342022
Ca 8.77446579 7.80291263 3.39021392
Ca 3.69987593 7.60037575 9.03776291
Ca 3.33474474 5.80653585 3.54031774
Ca 6.50271694 7.50995332 6.72402352
Ca 10.06546541 0.43631188 4.56225703
Ca 0.40474606 6.11229062 6.23548882
Ca 2.49544565 4.75865513 8.02060236
Ca 4.36521350 9.23329143 3.70916358
Ca 2.14694086 3.14195912 2.26834911
Ca 7.17832405 3.23048972 6.82705827
Ca 9.44681122 1.64606376 9.35342873
Ca 4.90285210 3.02086284 9.95649191
Ca 1.33775912 7.29867877 0.91450674
Ca 6.60847542 9.18531158 2.03083520
Ca 1.33460835 9.19850940 8.53203738
Ca 3.68238921 0.25299920 9.39437234
Ca 9.84945477 3.46635710 4.61226842
Ca 0.62166714 6.96752313 8.67974520
Si 7.48055295 3.65983182 9.94991065
Si 6.64777901 0.94922654 8.74601733
Si 5.26535403 5.44904999 8.38285015
Si 2.32242029 4.20360700 5.60286943
Si 3.98418818 1.14320488 1.99628824
Si 2.24421965 1.51949528 4.60148374
Si 0.07955836 5.73232480 3.20920353
Si 9.74611288 2.38258333 2.16611633
Si 8.57791613 1.08718189 6.57558208
Si 8.58950478 7.05975530 1.10399760
Si 5.07883709 1.87929777 4.00933597
Si 8.62638020 9.01983592 8.91179453
Si 2.04204974 2.38607681 9.74327054
Si 6.18846044 7.14457059 3.53681527
Si 1.38575723 8.52087254 3.73430085
Si 3.03778168 5.20367961 0.53351854
Si 9.45930963 9.70993221 1.31144918
Si 9.73112583 4.03716150 7.71161397
Si 3.69112380 8.22197158 1.49785537
Si 3.63341658 7.11746831 6.18743148
Si 7.82874485 5.70547536 5.71003946
Si 9.20632540 8.78555617 6.24819262
Si 6.16384984 8.31519214 9.68563129
Si 4.51453215 2.48639235 6.96798280
Si 5.19513931 3.97689437 2.82920369
Si 7.39962213 10.23761501 4.29264327
Si 7.70798671 4.28841580 2.82269353
O 5.43983238 2.77935005 5.60466200
O 6.01094163 5.24144629 3.26178607
O 4.88818054 1.84993156 8.34095395
O 4.92866846 7.47662260 2.58941687
O 8.40255062 7.25947726 6.10277059
O 1.26691775 1.15843260 9.37952122
O 6.06108899 0.73075602 4.78744781
O 7.03818051 2.22866121 9.53190553
O 8.43628212 2.77605268 3.04229679
O 2.57364001 3.72571656 0.16490279
O 6.22584732 2.81021631 3.36640510
O 7.97151323 5.53390415 0.99620766
O 7.48739494 4.15676325 4.63172409
O 0.98550040 1.22644681 5.55665020
O 4.65167273 6.79618376 4.86288660
O 7.33783978 6.74692074 2.45839222
O 1.85021465 6.04304677 9.69458692
O 4.82628261 8.58096302 0.40900903
O 2.09156658 9.86998493 4.09806889
O 9.75496948 8.73094489 7.63033329
O 2.68617539 7.84470202 4.76051442
O 3.45999274 6.84747769 0.73104887
O 5.15271595 0.96365068 0.30675531
O 2.62742778 1.43807021 2.93290884
O 8.28390343 3.79463680 8.62983872
O 6.49343890 8.63807844 3.95096179
O 6.89223799 6.59306179 4.83606326
O 8.53627419 8.48730623 1.36633746
O 4.24365231 4.86622925 1.53996422
O 7.99138193 0.26611677 2.88821675
O 3.01177922 2.70356752 8.44710139
O 3.19189323 3.07853953 6.15595308
O 8.16146553 1.42078494 5.08171444
O 2.55489764 7.52771236 7.42399556
O 0.35387929 7.20468412 4.15181674
O 0.14478771 9.20197597 2.56903796
O 0.57041611 2.39173963 0.97726830
O 5.72914560 6.86210813 8.96331855
O 1.58369764 3.17797723 4.41456183
O 8.93181194 3.25737330 0.38574873
O 9.93539770 0.30260191 6.81656173
O 9.76218643 4.28923591 2.46850942
O 2.79052100 5.66405589 6.10615061
O 8.93237684 5.53029095 4.09781326
O 6.94913026 5.51869900 7.06567350
O 6.31982319 4.61286746 9.73542538
O 8.72907485 9.23105650 4.65613347
O 0.79861180 3.51212326 9.15380598
O 8.45010241 0.21437588 8.07926391
O 7.54311664 9.40455466 6.40008074
O 9.95570871 6.62303579 1.96324482
O 4.83592831 2.52542649 1.91066942
O 9.54793008 2.33783333 7.05282218
O 3.39547141 0.90239680 7.10994945
O 9.82028589 5.39922242 8.43666795
O 1.90740748 5.69732868 2.16488906
O 2.41817199 8.93794488 10.22965357
O 7.54700262 7.93508387 8.40326969
O 3.42398989 9.88854594 1.79193598
O 1.49902239 5.20507766 4.73641157
O 7.14474439 7.54748027 0.40201087
O 1.09993765 4.17088045 6.64153734
O 8.94269629 4.32231946 6.23994264
O 4.78127165 6.48453940 7.15014650
O 2.29740302 8.04854763 2.33796634
O 3.01756971 1.51537210 0.80976357
O 6.79531498 1.30579451 7.11840524
O 0.40590835 1.78499543 3.19921185
O 4.35306401 8.47142302 6.50880957
O 9.36203056 7.10433390 9.85423420
O 4.80350882 4.08510545 7.71822292
O 5.44904054 9.81715071 8.89429813
O 5.21763580 0.49712817 2.93712955
O 0.61470921 8.70047232 5.75681082
O 6.93659017 3.85459276 1.29048550
O 9.12831583 1.07046623 1.32323437
O 3.86403318 1.20462850 4.85805830
O 3.77238019 5.63054295 9.28908713
O 3.85390955 3.74383202 3.84746480
O 7.66150845 10.03228508 10.06715193
O 10.07769407 9.40928093 9.97221845
135
Time=400000.00000008 pbc="T T T" Lattice="10.26287559 0.00000000 0.00000000 0.00000000 10.26287559 0.00000000 0.00000000 0.00000000 10.26287559" energy=-843.42293691 virial="540.76050236 42.14917557 60.67292881 42.14917557 588.97991041 40.48452343 60.67292881 40.48452343 554.18093898" stress="0.54331098 0.03899257 0.05612906 0.03899257 0.58791918 0.03745259 0.05612906 0.03745259 0.55572635" Properties=species:S:1:pos:R:3
Ca 6.38816143 0.24408922 6.30323476
Ca 0.20341495 4.50739696 10.22151816
Ca 1.12029875 10.17229790 1.33144586
Ca 5.15110859 4.63378866 5.71882528
Ca 5.53087425 5.97919678 0.95824423
Ca 8.74780751 6.41076197 8.18256420
Ca 4.14353233 1.55936977 4.47709627
Ca 1.80841367 1.80126987 6.82599711
Ca 6.74123644 1.76680906 1.77681022
Ca 8.30267221 7.50657835 3.18327576
Ca 3.57250644 8.11989268 9.73474604
Ca 3.20023283 6.03691325 3.50872215
Ca 8.62592495 8.84390002 8.60682799
Ca 9.09126973 10.16161946 3.67727685
Ca 0.67053742 6.11588601 5.68586924
Ca 3.05705517 4.54097426 8.28944914
Ca 3.46209198 9.25835022 5.97062382
Ca 2.29822465 3.20070427 2.38723830
Ca 7.20959535 3.07208665 7.49171860
Ca 9.23146379 1.76301515 9.84282082
Ca 4.66639688 3.27133400 9.90046152
Ca 0.81852170 7.33421657 1.32887393
Ca 6.20200886 7.67264873 5.52977106
Ca 0.71266448 9.26852140 6.14478268
Ca 3.88069872 0.24863315 8.63614171
Ca 9.99303400 3.06733250 4.69841214
Ca 0.73431573 7.67840143 8.72297994
Si 7.51635488 3.90385235 0.13584543
Si 6.76446850 1.15342066 9.23185586
Si 5.73704866 5.34617706 8.28664557
Si 2.29859851 3.80214146 5.28761153
Si 3.95957222 0.99296040 1.46251668
Si 1.47736980 1.00122719 3.93742700
Si 0.10389845 5.32286583 2.96285808
Si 9.76055937 2.32200797 2.01145513
Si 9.20211014 1.10848707 6.79324548
Si 8.22819155 6.81872933 0.82454917
Si 6.85136404 2.17843099 4.57524481
Si 0.93684148 10.16942380 8.84176303
Si 1.84455968 2.46580689 9.86488761
Si 5.97821201 8.28698373 8.34804695
Si 1.09174456 8.22741934 3.85432568
Si 2.81530132 5.35569453 0.83253722
Si 8.36570096 9.54995924 0.84170855
Si 10.02187903 4.09819366 7.93822189
Si 3.78505223 8.52206016 2.01731823
Si 3.42358898 6.90342208 6.35385167
Si 8.01187122 5.13529892 5.57912426
Si 8.79061440 8.35270284 5.93306765
Si 5.85500977 9.69947117 0.66875683
Si 4.69287458 2.37515177 7.20095749
Si 4.83675419 3.92368485 2.85524582
Si 5.89061730 9.70947572 3.36689621
Si 7.09556195 4.84484220 3.28514043
O 3.66714022 3.67283128 3.81713172
O 5.33681598 5.35115167 3.37440437
O 5.76329257 1.37652628 8.03021336
O 5.17119742 10.09958124 4.83721251
O 6.93861850 5.85264832 4.48433762
O 0.83000452 1.44809442 9.11803686
O 7.87634282 1.75744157 5.99382286
O 7.06097266 2.24149272 10.21986402
O 9.11329735 0.86973297 1.61271045
O 2.85746677 3.65352680 0.19021459
O 8.40978826 2.19614667 3.51149680
O 9.79985546 9.71935893 10.21099110
O 6.28091254 3.39641789 3.54441192
O 10.01770557 0.82646858 5.40127557
O 7.61233570 7.88587984 7.04908384
O 7.37341435 6.15442118 2.21789501
O 1.63373055 6.07775244 10.17636675
O 1.84269959 9.69025120 7.71036294
O 0.95372063 9.72392686 3.41375558
O 8.47476572 9.84968230 6.38768157
O 1.98541877 7.97003063 5.07949377
O 3.38578072 6.97806481 1.46352488
O 5.13059140 0.91255114 0.00817441
O 2.79776954 0.80856036 2.64926874
O 8.79048579 3.72741872 8.87968853
O 7.10445835 9.03554880 4.33221373
O 8.41103978 6.76835415 5.39582752
O 4.99863116 0.19035321 2.19951311
O 4.10913192 4.57200371 1.57009358
O 4.79706110 8.39432158 3.29923488
O 3.24392948 2.23509701 8.44662958
O 3.45029704 3.01744795 6.11230800
O 7.71204328 3.69589772 4.93848913
O 3.14571344 5.31874686 5.73593603
O 0.84227660 6.71588050 3.50654744
O 9.29392222 8.79758663 1.93743680
O 0.51574777 2.40403422 0.87335083
O 5.22592487 8.06636488 1.15549855
O 2.18027942 0.37457703 5.31616069
O 8.74986681 3.61068249 1.34514422
O 10.03291132 0.19331806 7.79034095
O 0.15805440 3.77916468 2.63541959
O 4.17853933 7.30056752 5.05799334
O 8.94411438 5.12985078 4.09982456
O 6.78564447 5.22031425 6.96825447
O 6.46613321 4.00707808 9.10834861
O 9.79275781 8.41938776 4.68751016
O 1.04834552 3.53441603 8.88283182
O 8.15249509 1.16724487 8.43371302
O 9.55649411 7.15708107 9.98276252
O 9.45191647 5.91678169 1.75681867
O 4.33986805 2.41684168 2.19200694
O 9.68865129 2.70987707 6.93262905
O 3.91004814 0.85611591 6.72855886
O 0.28912024 5.37247613 8.51946277
O 1.68995938 5.11645076 2.13197696
O 9.97496826 7.58219806 6.80523115
O 4.55380126 8.32044815 7.64976879
O 3.30750717 9.71373641 0.45842355
O 1.19236260 4.72479161 4.29780053
O 6.11986046 6.80048064 8.99785446
O 1.16001024 4.14038854 6.58080174
O 9.05908636 4.99490815 6.74550278
O 4.69886720 6.04562186 7.16749108
O 2.23495508 8.59247194 2.24221200
O 2.69657163 1.43290568 0.57652549
O 5.67443766 2.62552513 5.73701955
O 0.38490366 1.55505521 3.11017772
O 5.05220302 9.29386941 9.38787982
O 7.86932206 5.37112229 10.20224204
O 5.14750811 3.75893529 7.64702820
O 6.82815421 9.64841597 8.24015265
O 6.67286790 0.72853673 4.01858861
O 7.54424881 8.24914511 0.18416469
O 6.39533578 3.91786111 1.60737256
O 1.47167707 8.91938750 9.81938704
O 6.92623418 9.73299855 2.02875985
O 3.98921217 5.53998020 9.69898545
O 1.97721140 2.42500588 4.50494052
O 7.25003032 0.05954664 0.04503394
O 2.24718455 7.68577907 7.21787777
135
Time=500000.00000301 pbc="T T T" Lattice="10.26287559 0.00000000 0.00000000 0.00000000 10.26287559 0.00000000 0.00000000 0.00000000 10.26287559" energy=-841.65059398 virial="572.34538097 33.17807934 50.66241773 33.17807934 560.61646483 77.81415497 50.66241773 77.81415497 556.48127520" stress="0.57253043 0.03069333 0.04686825 0.03069333 0.56167991 0.07198656 0.04686825 0.07198656 0.55785441" Properties=species:S:1:pos:R:3
Ca 6.25148180 0.26454209 6.55796305
Ca 0.09536347 4.79241192 10.16245818
Ca 1.43006938 0.03164085 1.52041015
Ca 5.00450078 4.82411215 5.59926269
Ca 5.91700055 6.09841462 0.78936005
Ca 8.05107577 6.32910810 8.30938340
Ca 4.16096479 1.65336203 4.77469083
Ca 1.65173871 1.91735920 6.96173649
Ca 6.52433383 1.77130533 2.38806295
Ca 8.34322034 7.42632145 3.41116968
Ca 3.32734291 8.01931247 8.65470854
Ca 3.00269966 6.12568942 3.21084223
Ca 8.64764345 9.14857867 8.45528286
Ca 9.12848207 0.33469659 3.89276467
Ca 0.65675736 6.20971597 5.85062990
Ca 2.32218682 4.55302220 8.20884141
Ca 3.41227955 9.34326537 4.23092234
Ca 2.02058758 3.22105035 2.29984223
Ca 6.93654963 3.29812926 7.42106514
Ca 9.39007875 2.00855662 9.50091210
Ca 4.61936386 2.91025680 0.02748526
Ca 0.78503052 7.24382918 1.19795839
Ca 5.67208415 7.88168183 6.89578420
Ca 1.37358063 9.12285356 6.41925778
Ca 3.61064602 0.50888048 9.18158810
Ca 9.52074400 3.08854993 5.04677164
Ca 0.62414485 7.69305274 8.66803295
Si 7.35090330 3.71313928 0.29455370
Si 6.29770014 0.86404338 9.35585824
Si 5.36994615 5.36152826 8.58273560
Si 2.38462140 3.97780181 5.05158294
Si 3.95353343 1.08923282 1.89560625
Si 1.44087987 0.96133919 4.42748719
Si 0.33399366 5.22761768 2.82183601
Si 9.71407277 2.34393642 1.96836055
Si 9.04517014 1.00602897 6.65883111
Si 8.55660031 6.33482631 0.92419757
Si 6.83471570 2.40559816 4.73212661
Si 0.87565639 9.84942400 9.19328712
Si 1.82764679 2.55037187 9.55502420
Si 6.12914672 8.55460175 9.45754655
Si 0.77077103 8.37680895 3.61642184
Si 2.66844032 5.40933349 0.41687853
Si 8.32882112 9.14079228 1.22808103
Si 9.89301993 4.22080981 7.79020569
Si 3.98879290 8.36234310 1.48643299
Si 3.12894519 7.32230416 6.15464395
Si 7.49915411 5.53184500 5.59929378
Si 9.03842778 8.23061181 5.91029357
Si 5.52644705 7.33554434 4.26439148
Si 4.26060595 2.47656582 7.51121815
Si 4.94021215 4.28161268 2.65230183
Si 6.43911863 9.47133834 3.47402369
Si 7.99324483 4.18482819 2.72267238
O 3.65042942 3.67561916 3.65346216
O 5.24841473 5.95805585 2.93795614
O 5.47226323 1.83004271 8.44925723
O 7.41975116 9.97645580 2.15626238
O 5.66886145 9.04695234 4.94105331
O 1.31554964 0.99376076 9.62660769
O 7.84827968 1.64091941 5.85075414
O 7.21423955 2.15223782 10.22570395
O 9.05919394 1.00592590 1.35968124
O 2.14093362 3.78871089 0.21387138
O 8.36222599 2.69097675 3.27104411
O 10.01081155 9.21713981 10.18760906
O 6.20530067 3.55034297 3.61107808
O 0.02902578 1.25403960 5.27284661
O 8.66100288 9.73352233 6.38907284
O 9.16241618 5.22575495 3.84378193
O 1.91183526 6.33046117 9.48695956
O 2.29417465 9.92143009 7.94369648
O 3.45207312 9.75634762 1.56563558
O 9.81872018 7.93569348 7.14619339
O 8.18075332 9.01903537 4.37128772
O 3.34456660 6.92309636 0.94682318
O 5.44012538 0.49050416 0.40197034
O 2.72959173 1.02190146 3.44892820
O 8.88130504 3.92984316 8.93562673
O 6.39115514 7.89496579 2.84205500
O 7.84153552 7.19647439 6.10564503
O 4.99836894 0.38899982 3.11201857
O 3.92818512 4.36735706 1.37905184
O 5.12275691 8.27554424 0.45560240
O 2.97057145 2.63267426 8.41244877
O 3.52290459 3.22853252 6.05345996
O 7.59834410 3.83892107 5.52736629
O 4.59042442 7.12540173 5.39321461
O 1.90779686 8.53128300 2.46333549
O 9.81873435 8.85392662 2.34519305
O 0.74977481 2.44218250 0.80430313
O 5.32016682 9.62084354 8.80885275
O 2.31702638 0.49649584 5.64321828
O 8.80166004 3.46753419 1.07384857
O 0.13802230 0.40753572 7.68011392
O 0.07251224 3.70426703 2.75179879
O 1.93195291 7.66612411 4.93954158
O 0.40863056 6.60608833 3.39998336
O 6.36354266 5.66284175 7.01446908
O 6.07472776 4.40467436 9.87083642
O 0.89153396 9.78965136 4.26919877
O 0.64557891 3.36067476 8.83132847
O 7.55149971 0.76961538 8.34696625
O 7.60666399 5.76425427 2.49442114
O 6.67216244 5.83853598 4.44637641
O 4.65484035 2.38573865 2.24110642
O 9.35874431 2.58898637 7.19746321
O 3.99900235 1.29779149 6.89997015
O 0.19076033 5.64487073 8.30206627
O 1.74834209 5.26433075 1.81147703
O 9.98041750 7.72418324 4.74699537
O 7.01916700 8.43737272 8.16374405
O 5.88999702 6.84162043 9.02597106
O 1.39129975 4.59210441 3.92614065
O 9.73952861 5.61952995 1.70023620
O 0.79965653 4.08620008 6.55448889
O 8.92099641 5.14462211 6.79117329
O 3.97012325 6.55901839 7.44979020
O 4.39967869 7.90152865 3.26365277
O 3.10731145 1.79770221 0.57030103
O 5.64176328 2.50953003 5.96949562
O 0.74498443 1.52954440 2.94772886
O 3.78471855 8.95135899 6.30547408
O 7.87747760 5.21844223 0.08571761
O 4.79066043 3.99029333 7.76676770
O 1.66132759 7.35507102 7.21257479
O 6.88503157 0.73333159 4.34539967
O 9.25566630 6.85873300 9.96939925
O 6.76227753 3.90793650 1.62949687
O 1.83252507 8.84263928 9.86644125
O 7.79189979 7.69849748 1.23129264
O 4.15171920 5.10047090 9.76343360
O 1.84724623 2.59361808 4.64643999
O 7.24875643 9.63207788 10.15877468
O 2.83921515 5.60132892 5.70881150
135
Time=600000.00000594 pbc="T T T" Lattice="10.26287559 0.00000000 0.00000000 0.00000000 10.26287559 0.00000000 0.00000000 0.00000000 10.26287559" energy=-837.09030974 virial="588.46196113 -3.40807710 69.74954524 -3.40807710 576.52460680 50.85610456 69.74954524 50.85610456 543.12054550" stress="0.58744002 -0.00315284 0.06452592 -0.00315284 0.57639667 0.04704743 0.06452592 0.04704743 0.54549428" Properties=species:S:1:pos:R:3
Ca 6.08791034 10.25659822 6.60062175
Ca 0.13539125 4.53096327 0.06787606
Ca 1.12139452 0.02236389 1.83347355
Ca 5.45539363 4.26863188 5.58679046
Ca 5.82097257 9.33568478 0.87600601
Ca 8.00647487 6.08032413 7.65781095
Ca 4.76180263 1.45933787 4.65929634
Ca 1.53978095 1.79059436 7.10324964
Ca 7.22263734 1.79694033 1.75093419
Ca 7.94580359 7.58183622 2.83160151
Ca 2.53580943 7.57257749 8.44773263
Ca 2.04776074 6.47390181 2.90018590
Ca 8.31171976 9.02777828 8.90624362
Ca 8.90963830 0.11134725 3.98969928
Ca 0.29119457 6.36250559 6.37528733
Ca 2.56147973 4.42331844 8.29298468
Ca 0.56019206 9.07845346 6.21512895
Ca 2.35416961 2.73220865 2.57784921
Ca 7.77016852 3.47495490 7.33928464
Ca 9.20015703 1.36722158 9.81173799
Ca 4.84946956 3.04810856 10.11784065
Ca 10.08697493 7.66117015 3.82430446
Ca 5.32478564 7.55215677 5.80002083
Ca 3.13533182 8.90763814 3.73486454
Ca 3.69546976 10.15428582 9.38685684
Ca 10.22040583 3.43540511 4.98281525
Ca 0.13959552 7.38579330 0.08541844
Si 7.41773507 4.15936924 0.21597306
Si 6.48662986 0.84270494 9.08280936
Si 5.48773862 5.27593881 8.29772951
Si 2.76262836 3.89521410 5.01445538
Si 4.18370346 0.86452259 1.78108838
Si 1.37975716 0.62006787 4.49167953
Si 9.31473353 5.08573754 2.35321423
Si 9.81682895 2.48151149 2.49315210
Si 9.00645371 0.83868354 7.00419364
Si 7.69186797 6.62943863 0.11340265
Si 7.32353840 2.47903350 4.35258520
Si 0.90806856 9.49877325 8.98298117
Si 1.78879192 2.24692347 9.99666078
Si 5.48153774 8.13936288 8.48368225
Si 3.32603146 9.64733003 6.40516997
Si 2.86052507 5.00288507 1.20234604
Si 8.69942188 9.74463714 1.19789431
Si 10.15840853 4.23199793 7.87663367
Si 2.88447488 8.19259905 1.09413565
Si 2.73490111 6.46459799 5.65625984
Si 8.48106189 5.56573397 4.73087706
Si 8.04365154 8.29307914 6.14145489
Si 4.88288130 6.39892020 3.10120502
Si 4.34415958 2.54126936 7.22560896
Si 5.33620460 3.72496339 2.71085355
Si 6.20916653 9.55714844 3.87719361
Si 4.85833182 6.70933018 0.43212426
O 4.28576866 3.38606076 4.13000786
O 6.20194433 4.27845696 1.23101445
O 5.16014235 1.57046055 8.70841119
O 7.53625558 9.59228789 2.45832230
O 4.80099184 9.35144553 5.35100334
O 1.35813294 0.76135638 9.44663112
O 8.08237884 1.63159217 5.64833787
O 7.19621778 2.40215114 9.82648722
O 9.22489508 0.98083580 1.75777999
O 2.45326858 3.75544705 0.18451923
O 8.75061486 2.17483722 3.49880897
O 10.01856626 0.38415189 8.01310343
O 6.36231482 2.96037536 3.42978483
O 0.31009301 1.05926978 5.55521551
O 8.69173552 9.59681598 6.97330129
O 10.16282180 5.44452653 4.43367931
O 2.24886162 6.54394343 0.28985211
O 1.99089986 9.04812876 10.02998062
O 1.50057987 8.30722759 1.91250039
O 7.57769682 6.70135287 5.26418216
O 6.83790642 9.05635326 5.28171459
O 4.27839778 8.08922050 9.88153051
O 5.47674177 0.85266282 0.29690960
O 2.82043372 0.82568527 3.02542371
O 9.05416792 4.59258811 8.94762181
O 6.08509499 6.73059242 1.38676452
O 4.68791536 6.81177938 7.91631772
O 5.29535078 0.36460412 2.83957943
O 4.27134369 5.25719356 9.54187820
O 4.51171027 9.11785447 7.69507288
O 2.86773090 2.45079012 8.58319808
O 3.12576013 3.44273579 6.46897549
O 7.88781604 3.94066771 4.89422542
O 5.80073021 5.13890492 3.51351845
O 4.17781456 7.44783257 1.90937375
O 9.54315970 8.74615560 2.28780596
O 0.90697239 2.24559047 1.15533576
O 3.46001943 9.67401983 1.43479147
O 2.27548735 10.21445869 5.47081684
O 8.85528797 3.25958244 0.91261325
O 0.49024025 7.98607439 8.44742850
O 0.13909608 3.96380217 2.89464704
O 5.89732421 8.14970887 3.38808766