135
Time=99999.99999996 pbc="T T T" Lattice="13.67086365 0.00000000 0.00000000 0.00000000 13.67086365 0.00000000 0.00000000 0.00000000 13.67086365" energy=-865.95661854 virial="-43.69837044 -9.76056856 -19.04407644 -9.76056856 -36.84655304 5.99798342 -19.04407644 5.99798342 -12.60820264" stress="0.00566293 -0.00382021 -0.00745370 -0.00382021 0.00834468 0.00234756 -0.00745370 0.00234756 0.01783138" Properties=species:S:1:pos:R:3
Ca 4.95481762 5.64698320 12.25993864
Ca 8.08135061 5.77661284 9.75409096
Ca 1.66912140 7.63483634 7.40771063
Ca 10.71916617 11.98992630 11.78980319
Ca 5.76202921 8.46889259 7.65394385
Ca 10.93546767 1.39367114 13.25531897
Ca 2.55747981 0.58116537 1.44101225
Ca 0.27190169 1.44750813 9.45387509
Ca 9.46035400 4.60478723 5.08045400
Ca 9.02989372 3.25412781 11.80766781
Ca 5.92029045 12.15872162 11.90557222
Ca 3.74104812 1.90391148 7.67397190
Ca 6.52372370 12.10863776 7.14508662
Ca 11.15760356 6.07243058 2.87346956
Ca 5.96955791 11.95497385 1.37367858
Ca 8.43968572 9.53595726 0.63836022
Ca 11.59227745 4.59268149 10.81428190
Ca 3.04107545 7.59655365 3.17430990
Ca 4.42114790 11.17016156 4.96492687
Ca 9.84378731 8.49210365 10.91834415
Ca 9.54751190 11.33375808 7.78655132
Ca 0.94158034 7.86598440 10.72406938
Ca 7.49474614 5.56274251 2.93268990
Ca 1.29998244 3.29260544 3.37355390
Ca 5.65577170 2.81125091 13.63517473
Ca 12.96653067 9.06922720 5.95609301
Ca 9.23442115 1.15698100 3.38331720
Si 6.93976608 9.07303724 4.26853588
Si 3.44234977 13.29828357 12.99448781
Si 10.71221855 3.20343442 7.80256237
Si 3.50094168 11.40489689 7.66605522
Si 11.70287654 7.10930072 8.64124976
Si 0.48554996 13.27898204 7.21030681
Si 8.12640104 11.21937351 3.16765995
Si 6.03361274 5.16764939 5.92956394
Si 11.96043561 7.35651071 0.00153627
Si 7.59830297 10.30090183 10.47237854
Si 13.43489442 0.19239639 4.18089588
Si 6.41115032 1.31871365 6.06169350
Si 9.77329283 8.34096839 4.50115033
Si 2.71826581 10.32908340 9.75121259
Si 2.23984933 3.63636207 0.28890017
Si 4.35290372 3.96914850 2.45408621
Si 9.06803948 2.88214959 1.03683286
Si 2.97843611 5.39291911 4.96523458
Si 0.03549850 2.32761590 12.53584137
Si 5.81642900 3.32408748 10.37687167
Si 4.16577909 6.34602245 9.76937268
Si 9.37931826 6.06507979 0.39649423
Si 10.46432062 0.44779198 9.74214525
Si 6.53478582 2.13474303 3.18724264
Si 12.11951422 11.87360773 9.19932320
Si 2.24654076 11.95912071 3.68338416
Si 0.12430146 6.33298167 1.57814662
O 4.83916147 1.08952212 5.96724802
O 6.50775350 11.63891574 9.98369871
O 2.09001643 11.63730445 8.61106389
O 5.46268169 3.13527922 3.25090948
O 8.05208738 11.59529765 1.73448002
O 10.27796444 2.35773929 1.71956496
O 13.62444688 0.82407130 12.18975156
O 5.90529962 2.51743100 11.86766961
O 1.66963161 0.74716305 8.03169755
O 1.50607319 9.35118720 9.54332859
O 8.35477231 12.15821877 4.46409622
O 2.27945450 4.00707276 5.13990033
O 11.29288685 9.42209657 4.61940271
O 11.38007839 8.09380098 7.50262538
O 1.38844382 5.22758083 0.97312295
O 11.74943397 10.56453595 8.13434287
O 7.08463865 4.86495374 4.87802031
O 0.62958442 1.42006772 3.68174172
O 10.46108043 7.38533612 0.73742473
O 3.43709468 4.61510639 13.50020985
O 2.84589021 6.16905245 10.81894087
O 13.48217469 7.89534751 0.92125201
O 0.75520007 3.16795081 11.48491349
O 9.66531352 4.39810481 0.56432317
O 6.26422108 6.28058376 7.06889627
O 4.65837641 4.87018404 9.59813837
O 7.13043764 0.36758956 7.02166828
O 7.40931571 9.64519793 12.35856274
O 7.30238123 9.51157531 6.63329146
O 12.08925581 0.15920812 9.35145568
O 5.27139111 13.53043079 13.27952019
O 3.08804549 2.94049145 2.11779540
O 7.45758999 8.34102490 2.82974493
O 7.81679606 6.47783372 0.63434400
O 11.93708709 13.10811893 3.46959214
O 7.79804850 8.54453759 9.83342317
O 4.09482459 9.63370776 8.75648488
O 8.23208612 2.18512869 13.43903984
O 0.91104430 2.62529647 0.46645653
O 11.36950971 2.97585234 12.16384056
O 13.65336748 12.46242202 8.46330590
O 12.33098138 8.02487640 12.09447464
O 3.53577273 10.56128181 11.32215555
O 7.08279105 11.21389508 13.58109448
O 11.99092237 5.66329451 0.61996585
O 7.57205504 4.51363331 11.85148024
O 2.85234266 10.43282528 6.47260046
O 4.74971277 5.12691953 5.01788283
O 4.65642628 12.51168721 7.66965587
O 7.60658272 1.75006721 5.00614750
O 2.63792428 10.14645925 3.91171824
O 5.59530577 6.94065164 10.35543374
O 3.60890758 7.17418669 8.30170772
O 9.74981666 1.79413513 8.72311760
O 9.89841848 12.92910262 8.99910345
O 9.80308870 6.95932986 5.02676889
O 7.81732520 2.65777535 2.57381328
O 5.29153114 2.19647116 9.52591377
O 3.30895672 1.57126068 13.21076923
O 12.68207455 6.13816563 9.17282682
O 2.30447641 6.94328389 5.44011013
O 1.40930109 12.65780952 5.81478990
O 5.62975631 10.52622418 3.38381615
O 9.89568637 6.39597571 12.04558646
O 9.95557925 4.54105606 8.49445610
O 0.61436586 6.54782827 3.03132468
O 9.19726030 10.97490439 10.68181613
O 12.56755057 11.36208055 10.79599412
O 3.16089302 12.48284202 11.59108161
O 8.73575189 9.67161755 3.80085932
O 10.87613079 0.45746421 11.27269040
O 3.47929480 13.32001887 3.60611039
O 0.79867925 12.42920689 2.74169125
O 5.23340434 4.63995608 1.27907206
O 9.69173875 4.84685765 2.82410883
O 6.43799946 0.81951182 2.09734627
O 12.40390583 3.11566664 8.34760912
O 10.77280077 6.78201085 9.88886942
O 10.78945003 3.28817413 6.29371103
O 13.46950084 0.67257589 6.47381231
O 3.51508693 5.45866367 3.27925498
135
Time=199999.99999918 pbc="T T T" Lattice="13.67086365 0.00000000 0.00000000 0.00000000 13.67086365 0.00000000 0.00000000 0.00000000 13.67086365" energy=-862.59393112 virial="-64.89121645 13.31815915 -7.89286833 13.31815915 -69.64980558 -33.41190718 -7.89286833 -33.41190718 -57.95337041" stress="-0.00263178 0.00521262 -0.00308921 0.00521262 -0.00449425 -0.01307716 -0.00308921 -0.01307716 0.00008364" Properties=species:S:1:pos:R:3
Ca 8.09274789 13.27766390 11.10175937
Ca 11.82690293 0.12714674 5.43763145
Ca 10.04343092 3.76211737 6.63479847
Ca 5.54858959 2.30321038 2.74244762
Ca 2.34691077 10.39627553 8.79041775
Ca 6.24117966 5.79183317 3.87187538
Ca 11.65904731 9.76243132 10.06991002
Ca 12.84837072 5.37801296 9.68525534
Ca 10.28556810 7.36616000 7.15671100
Ca 12.58607294 2.30060802 8.31530813
Ca 2.67652527 3.00475300 8.77695888
Ca 12.05556056 3.93939783 0.60143127
Ca 2.37003435 2.22003233 0.48405779
Ca 4.05221568 8.29062794 5.24498296
Ca 1.61745440 1.44864545 3.09887522
Ca 13.28088709 12.77268565 13.10959646
Ca 7.20053406 9.69829711 13.00121772
Ca 9.59043571 1.94867557 2.07780987
Ca 9.42511377 0.04458734 8.24719265
Ca 1.80721390 8.43513028 2.17462628
Ca 4.35149661 12.64542731 2.80555400
Ca 8.34030839 10.33974387 4.04498254
Ca 5.61565334 4.84499546 11.72029653
Ca 10.65108652 10.27796954 5.14977382
Ca 5.94772205 6.07773490 7.97631590
Ca 2.88479412 7.44507375 8.94320501
Ca 6.19993101 12.50134766 8.39790346
Si 11.36832899 7.52818437 0.30768633
Si 6.75610365 2.21684003 8.72983685
Si 0.53398416 11.69991964 1.67505484
Si 5.79497497 9.60913770 3.13801409
Si 2.55692898 8.91825462 12.12063083
Si 6.54660608 0.73529563 0.41735864
Si 0.50618810 11.31013679 5.49336021
Si 9.13930591 4.38230942 3.92225626
Si 13.42029018 9.55981887 13.10797134
Si 5.09542874 8.37507403 10.93062367
Si 9.06389876 10.28180659 9.58282397
Si 0.06978533 8.67683338 7.34150913
Si 11.73404732 6.25728139 3.98105703
Si 4.74791614 1.13598074 11.25917182
Si 6.80282359 8.83587875 6.80869676
Si 9.43307085 8.88235763 1.89095757
Si 1.06305071 2.12294528 11.67499462
Si 2.03900384 6.35831304 11.80883727
Si 7.56434131 12.76991195 2.43590673
Si 1.37875515 4.38660364 6.87990914
Si 2.67406280 13.03388053 6.48359120
Si 3.02944771 5.48325213 5.70762492
Si 3.27139688 4.70085822 2.28647687
Si 13.41476534 13.37420540 9.96984048
Si 12.49006738 0.53116025 1.63086033
Si 9.53262057 3.14510707 12.29161021
Si 8.38813439 5.66819045 11.47449726
O 13.15512433 1.68761776 0.68601515
O 0.68647320 2.98694761 6.64672177
O 10.87526265 1.65833756 7.15837842
O 11.77990443 13.64655505 8.97217831
O 5.62635449 2.18736617 0.82521873
O 0.90881748 10.94530288 3.07451607
O 1.96226226 9.00582359 10.43007923
O 1.35237127 9.99158662 12.92245810
O 0.38418772 13.65327212 2.38170744
O 13.54100703 11.53045686 10.26454074
O 8.96323148 4.45764696 2.28547166
O 8.58257206 11.67308659 9.03037053
O 4.94406381 4.67542729 2.38165559
O 8.08439797 9.76276616 1.60241426
O 9.60415855 7.25230007 1.99362661
O 0.34624914 12.47227651 6.86063674
O 12.74184875 10.43585794 12.10098089
O 11.32474813 0.58785660 2.51413146
O 7.44957249 6.26762932 10.28090356
O 3.45822804 5.55333623 11.87936860
O 0.00730372 0.52169044 11.60782630
O 8.79020299 2.79347708 4.32958742
O 12.26091369 12.69687471 1.18557217
O 3.90869720 13.02195916 7.39411904
O 4.76612181 2.63828813 10.52428449
O 12.86155630 8.05397523 8.67486294
O 13.02866767 11.70315826 4.44185186
O 9.10971604 12.62635510 2.68942008
O 9.10073319 11.00522298 11.32781406
O 2.69194565 1.45870768 11.80424637
O 6.30784833 0.82112686 12.29273947
O 2.13102920 11.82304196 5.46523646
O 9.78647562 9.02778436 8.77537311
O 9.05562334 1.34468571 11.89681717
O 4.49826318 10.28154262 4.07368051
O 4.76415843 9.10070031 2.09658487
O 0.05142018 3.43655853 10.40273771
O 6.30363615 8.01851798 11.85100500
O 6.08008761 8.05195300 5.13802992
O 3.75379315 1.17590801 2.03052001
O 1.32920858 3.26887703 12.87829138
O 13.20344681 5.82859077 3.76942250
O 5.05480376 7.45572458 9.41488838
O 2.59326511 3.16589777 2.57211377
O 10.48216647 8.69672145 0.06363318
O 4.02495675 9.65847932 11.28235090
O 9.67062657 4.19188784 10.98560525
O 1.08018697 0.61014707 9.32490795
O 7.52735526 7.53856512 7.25932537
O 2.48038624 8.84959519 4.11395331
O 4.82276939 13.45832143 10.49669591
O 3.05365301 5.28415788 4.12276699
O 5.78158755 3.27237849 8.07065409
O 6.89586656 0.40291069 8.98793598
O 4.28901833 6.33991120 6.65197864
O 1.22910816 5.70894754 5.70108679
O 1.23134397 6.99125659 10.39135455
O 7.67576972 5.60618884 12.75410700
O 13.39079885 9.99668376 6.88832703
O 2.39530917 7.63434354 13.02885394
O 1.58411048 8.72986805 7.62936379
O 6.77167053 12.32657252 0.64290521
O 2.57166584 5.63742762 0.97527737
O 10.70002798 7.20065136 5.01365265
O 8.60380123 11.00769027 6.11687023
O 7.26708966 0.95068044 2.01928114
O 11.44260871 5.07013945 7.13635769
O 10.40122320 9.59672729 3.22662368
O 9.75900256 3.40027692 0.22395648
O 1.94703420 4.87746192 8.25014740
O 13.31405542 8.66681161 0.64331659
O 6.62174380 10.20183293 7.65496367
O 3.54105339 4.06641896 6.33733510
O 2.18110249 0.61557745 5.74334664
O 6.41767281 12.82002970 3.80900232
O 10.83701065 4.29048536 4.11344705
O 11.91160473 7.05894953 12.18760767
O 11.82141933 6.57925725 1.41582233
O 8.16545231 5.28291857 4.74018686
O 1.60351851 11.59172447 0.51684067
O 8.26346201 2.94950770 8.62096001
135
Time=299999.99999840 pbc="T T T" Lattice="13.67086365 0.00000000 0.00000000 0.00000000 13.67086365 0.00000000 0.00000000 0.00000000 13.67086365" energy=-854.17500478 virial="28.72119900 33.28920026 -6.58923148 33.28920026 -35.60845574 -8.92634420 -6.58923148 -8.92634420 -54.24696955" stress="0.03400739 0.01302913 -0.00257897 0.01302913 0.00882926 -0.00349370 -0.00257897 -0.00349370 0.00153429" Properties=species:S:1:pos:R:3
Ca 5.89858123 13.04215714 6.10298252
Ca 5.53254793 3.12982680 6.07596017
Ca 2.33043764 10.12419148 4.83464410
Ca 0.01469048 3.94603386 11.45919678
Ca 3.88698019 2.81168465 12.04647490
Ca 4.20700967 4.95714996 3.63715096
Ca 8.33851262 0.49033358 10.58977064
Ca 10.77039361 3.24054184 1.98826135
Ca 11.83358197 12.08914246 11.73809690
Ca 13.52744498 11.42955784 1.71220932
Ca 3.52612678 8.28010587 7.98271871
Ca 8.46733745 4.95420898 3.66715958
Ca 0.46803388 3.71369170 5.66729604
Ca 6.49520689 9.70630574 8.23099820
Ca 10.88203241 9.01113871 11.13163677
Ca 3.70423059 1.12497554 9.44094593
Ca 6.75405882 10.91950175 13.27684085
Ca 0.20689743 7.86993069 6.53592989
Ca 10.56611209 12.55695089 6.65663912
Ca 7.44571330 13.28572038 1.68164642
Ca 5.94232901 6.33471879 13.44232904
Ca 3.59976446 5.29254386 9.52734289
Ca 3.86252790 12.04825580 2.57022068
Ca 0.22307210 6.30290783 1.32446377
Ca 7.37037367 6.13929686 7.71855594
Ca 9.76462935 8.13654702 5.75004043
Ca 4.58813212 11.49245898 11.34398691
Si 8.77876569 8.18331692 0.11405878
Si 0.85473863 6.76357552 4.37878999
Si 0.62431376 12.72334875 8.84932434
Si 10.33867937 5.55577637 0.67362689
Si 2.05359511 9.93565265 0.99538295
Si 5.64829130 2.79139270 8.72602794
Si 10.02085908 10.65959135 1.24667175
Si 4.44452417 11.51714253 8.17998277
Si 8.22238082 8.42905376 10.74518183
Si 5.96403892 0.91987589 13.00061552
Si 11.60019735 6.61121456 4.77535403
Si 0.38214709 0.03372461 6.62492496
Si 3.67153144 4.65881248 0.49180909
Si 2.36351640 10.90986890 12.43182865
Si 8.43570307 2.48545407 7.14667765
Si 9.99231849 1.63533413 12.97379400
Si 6.08121549 6.95042088 4.94144199
Si 8.97695793 0.56295780 4.74561360
Si 2.54504455 2.06657825 3.91513954
Si 9.66429739 10.39724635 8.98631521
Si 1.53558132 6.56822388 10.26031243
Si 0.95109502 3.15649641 0.24146523
Si 10.57442749 4.60564772 11.71628684
Si 9.11158070 10.99612528 4.18161396
Si 6.45973097 11.61515089 3.47112401
Si 12.35280472 0.31161591 3.87413448
Si 6.39371798 3.09353712 0.65776298
O 6.52431840 2.30985750 12.07595880
O 13.57117641 0.11475102 5.00067810
O 3.24637413 6.18912858 0.97336810
O 1.01173559 8.42651483 4.50820086
O 9.23065657 9.15448558 7.96459878
O 8.90611785 10.11149009 13.59704620
O 5.83429525 13.10538258 3.65093135
O 12.37781441 1.86188471 3.47307752
O 2.44620957 7.19312309 9.18581920
O 2.80650385 10.25902393 2.51096808
O 8.91708221 2.26436208 0.50861349
O 2.82760531 0.37450004 3.71794200
O 0.39313538 5.93305703 5.69525134
O 4.83941560 7.44243183 5.43117400
O 2.75587508 11.75282907 10.79052902
O 10.00433792 9.98975139 5.12650018
O 9.19800274 1.35872633 3.09171549
O 11.72364604 6.52260670 1.04363143
O 8.28227243 7.58001442 9.05661881
O 10.10940413 6.28497363 5.11189820
O 1.62218552 11.61610822 0.19845577
O 0.36468321 11.80371091 6.92238866
O 11.04937066 10.82793548 9.76273679
O 8.61221964 12.74231749 4.75347567
O 1.99487992 2.26791744 12.74466514
O 7.79057536 1.69347236 5.61111665
O 9.76729976 11.43122967 2.74992853
O 5.71557243 5.15376233 5.43474230
O 10.84254580 13.34816870 4.60601464
O 12.29914803 5.97798404 3.52721107
O 13.38385948 2.60522583 0.79177582
O 12.27031685 13.14731341 2.42541370
O 8.39965217 4.14735148 6.53124145
O 9.23822455 5.07397890 10.99754687
O 1.58587834 4.95627400 10.28312772
O 7.36134347 8.09985126 5.51458357
O 9.61873407 4.80163057 2.03443286
O 4.25674961 11.03297600 0.13827019
O 12.00566538 5.17141100 10.92225177
O 1.32518756 2.99365728 3.37961458
O 9.19232815 11.98251139 8.62821796
O 9.57770134 1.09949789 7.39462255
O 7.10261224 2.17284273 7.77465862
O 11.48400909 10.65119416 0.75419513
O 0.57227318 7.29306237 11.20814393
O 10.75058971 0.27064830 12.64424736
O 6.02505512 4.39667077 8.78373252
O 4.65296132 0.70144172 12.14669614
O 6.41419568 0.61543055 10.17323596
O 0.31018854 1.90983786 7.24346653
O 4.80852200 10.20652500 6.47960574
O 9.39386691 2.35232615 11.53421661
O 1.57636816 4.50519443 13.63259859
O 5.29063166 11.71451609 0.98147472
O 3.78859738 2.56815844 4.82536074
O 4.61008487 1.84975270 7.82161426
O 0.43963381 9.59956692 0.77829070
O 9.30410622 8.42934927 1.69422757
O 6.60196956 8.12190634 10.93571135
O 9.01369698 8.30877197 11.99516810
O 8.50659759 10.14299756 10.42240361
O 9.03530422 6.53953740 0.12431444
O 2.44570848 7.47094879 6.76584828
O 6.99549932 13.21194389 12.85524982
O 2.19333982 13.34550469 9.43413365
O 4.36691248 10.00884831 9.27879186
O 5.72590247 9.09331308 12.56375563
O 5.50093744 10.64548630 2.86396708
O 12.97014193 12.15816749 9.92478215
O 11.06648028 3.79990238 13.27719673
O 4.23842145 3.09473196 9.57370148
O 6.58216818 6.20406381 3.20043573
O 2.86615735 9.44446350 13.19416888
O 6.71394290 4.30913661 1.60461797
O 6.26717582 1.53160464 1.20295511
O 3.50911544 12.32613955 7.08749728
O 12.33283949 7.51784052 5.54782090
O 7.63912731 10.62946830 3.96335450
O 5.90109866 11.96087721 8.76573090
O 4.76336978 4.72639422 12.69905510
O 4.03971187 3.29916283 1.00855260
135
Time=400000.00000008 pbc="T T T" Lattice="13.67086365 0.00000000 0.00000000 0.00000000 13.67086365 0.00000000 0.00000000 0.00000000 13.67086365" energy=-864.87473353 virial="-43.57437935 15.85709456 0.89285559 15.85709456 -47.40330865 2.74472898 0.89285559 2.74472898 -8.17280531" stress="0.00571146 0.00620634 0.00034946 0.00620634 0.00421285 0.00107427 0.00034946 0.00107427 0.01956736" Properties=species:S:1:pos:R:3
Ca 1.98642773 7.41676882 8.06753737
Ca 10.00013619 11.61033685 9.72135831
Ca 5.45259757 11.54246933 12.69989815
Ca 5.76579313 6.61066962 11.09163826
Ca 12.06886038 9.66835348 4.08090890
Ca 3.75443913 3.32882544 3.45660282
Ca 2.72774975 11.92702780 1.50667156
Ca 9.51177472 8.93510987 3.15513398
Ca 1.63432167 2.74564964 10.50318902
Ca 13.07284651 11.40543331 11.92765541
Ca 4.34547971 4.22804277 13.13002272
Ca 10.37350362 1.67441303 8.71961545
Ca 8.45001539 2.54076887 10.57166715
Ca 6.69410457 4.45662708 6.03097097
Ca 9.90545196 6.58655802 11.61703207
Ca 13.28960712 5.28770529 0.22488840
Ca 1.75675638 4.03773966 6.06615543
Ca 8.18704183 9.43975374 12.09930711
Ca 11.10231920 2.87492249 4.31419673
Ca 13.16338016 9.53093751 13.57570230
Ca 10.77831643 8.80673828 7.06671035
Ca 12.00721983 5.21319456 7.41825909
Ca 3.04979785 8.63191027 3.95260485
Ca 11.70974766 0.10231543 2.38417088
Ca 6.41332205 12.95782447 4.15370645
Ca 3.60576803 11.66977530 8.78084187
Ca 9.76522483 5.69467264 1.56905982
Si 7.04080528 7.02146949 8.75021085
Si 7.30028210 11.33145427 7.29920025
Si 0.13640771 2.17452086 1.54523274
Si 6.53710921 7.18550175 3.23096005
Si 5.56754475 10.43144101 2.17422868
Si 7.22239220 6.92213562 0.51082344
Si 0.34553293 7.53300862 5.62981497
Si 12.99338996 7.12732074 2.09108243
Si 8.86781949 6.74659164 7.05927219
Si 13.30911032 0.95532178 7.01678461
Si 3.64096502 3.95078916 9.10117766
Si 7.46529146 2.40212769 2.70256348
Si 11.21336521 8.37891779 10.39819094
Si 0.12248831 0.68406932 13.11278410
Si 4.57149129 2.50970431 6.23286629
Si 12.56075588 4.40609760 10.69704262
Si 9.85459791 6.27075403 4.35502775
Si 1.85506744 10.82713026 13.10049963
Si 8.18850117 13.16947073 0.97380889
Si 7.81687786 3.83676129 12.84457480
Si 1.99970503 5.30851046 1.97358807
Si 3.70675455 0.44574628 5.25801912
Si 6.09670868 10.75566325 9.93370466
Si 12.22402586 12.68190618 5.75241725
Si 0.92564203 0.11659350 3.56191928
Si 10.68839911 13.38217027 12.42941130
Si 13.50928092 0.18815927 9.96483476
O 7.17886793 5.96262304 7.28023565
O 4.91888971 7.22565677 3.98742875
O 3.59339985 1.23664304 6.68171320
O 10.04181738 0.34173250 11.21201475
O 13.50859292 4.36411103 9.49166915
O 1.06641104 11.04561097 11.83589442
O 8.43922040 5.63020011 4.74185703
O 4.02291375 3.82683388 5.81061170
O 8.13619473 8.08035709 1.17533173
O 13.19881531 7.53417132 3.54426931
O 5.16880343 1.41883879 4.58717299
O 11.77115268 8.96199229 1.58691244
O 2.69284941 5.14476186 8.24156948
O 2.52634498 1.10077897 3.94615324
O 5.17929945 6.93847299 8.83075477
O 6.47959701 4.30731994 12.26541731
O 6.04981575 2.45249160 6.77411759
O 3.04374305 9.44513371 6.62759374
O 5.67225110 11.91870828 1.45943574
O 8.37765761 12.40235161 2.46444839
O 12.34348306 2.99643704 6.82954259
O 9.09224365 2.84373051 12.75227473
O 3.50629573 12.31130385 5.06537426
O 3.19940708 4.50534261 1.22812493
O 10.60098775 11.61010364 11.83374132
O 8.29607596 11.33611796 8.48618479
O 13.56364742 4.10415020 11.82436941
O 11.67902855 6.76419869 10.43705015
O 13.57143169 1.35200404 4.31068644
O 8.90331066 2.86542004 3.55909689
O 12.30911996 2.73043854 1.95620855
O 4.04968439 4.19232957 10.89235790
O 1.57181068 9.77976047 0.47485155
O 3.02448092 10.26576819 7.55441933
O 11.40868720 13.47056919 4.52616528
O 12.43572970 9.06135267 11.31340751
O 11.51130648 13.37304459 7.19112400
O 9.80294141 8.91913320 10.81125632
O 0.89493776 8.85367176 4.56251489
O 11.32001182 9.36438897 9.09201206
O 7.87653244 6.80482511 10.00659866
O 1.92307169 6.10499889 3.48214668
O 5.87404360 12.49816461 10.42507655
O 8.57201507 5.93396003 13.08753568
O 13.02556171 0.50028223 11.58575719
O 0.61184218 6.12323529 5.88854191
O 6.74211296 9.80399236 3.15818654
O 12.48408194 0.99139494 8.89635940
O 12.09798827 0.10384063 0.00619483
O 3.55808311 2.33405865 9.16183874
O 12.62622585 8.16949805 6.02950192
O 7.65927545 7.92592429 7.62895527
O 10.11076171 6.24043208 8.10140957
O 7.07702397 10.87473057 11.17332165
O 10.81970848 5.22271212 5.23861751
O 6.39828588 11.91487062 6.16406443
O 10.77694098 4.27890414 10.46165130
O 1.44324963 12.99258694 13.27448905
O 6.94766749 5.97377599 1.76959208
O 3.51205952 11.33694105 13.38089901
O 0.48645632 13.28598588 6.41783871
O 4.08328955 9.90670180 2.46614796
O 11.87090339 5.58209499 2.02387198
O 9.83037289 7.38025993 5.58906676
O 1.12634446 3.85307798 1.92112544
O 0.97988722 0.67543198 1.98849339
O 6.20191009 7.04361241 12.80557330
O 4.69325158 9.75783608 10.30120348
O 7.39763789 13.04319907 13.26597688
O 10.13506604 7.17114525 3.08891164
O 0.48448282 2.21678003 13.43719889
O 9.50602517 0.30034555 0.46322544
O 6.19588724 3.22738938 2.52571554
O 0.80807927 7.01011703 0.90593647
O 7.04726714 0.89937584 2.44969355
O 8.56464525 1.49920185 8.43821388
O 1.52577061 0.75053839 10.21603556
O 0.49317125 12.35411929 3.28865546
O 5.97018176 10.92933522 8.04038269
O 0.23570301 12.20396783 10.00951553
O 11.24706236 10.47585944 5.65480566
135
Time=500000.00000301 pbc="T T T" Lattice="13.67086365 0.00000000 0.00000000 0.00000000 13.67086365 0.00000000 0.00000000 0.00000000 13.67086365" energy=-858.44512865 virial="8.04500295 -10.01570459 39.95874430 -10.01570459 -36.55939588 48.56285839 39.95874430 48.56285839 -46.98266310" stress="0.02591489 -0.00392007 0.01563954 -0.00392007 0.00845707 0.01900712 0.01563954 0.01900712 0.00437749" Properties=species:S:1:pos:R:3
Ca 5.92699161 4.56500467 5.49678810
Ca 12.47780724 6.76274389 10.88179713
Ca 12.28495487 3.26264005 12.52793094
Ca 12.29740986 0.65914581 1.99389016
Ca 3.55293156 10.67061187 5.18071642
Ca 8.21788674 10.36464787 0.56767850
Ca 3.35739267 13.43016634 11.07055760
Ca 9.10906887 3.17009088 12.60883709
Ca 10.83576169 3.54563815 5.47887957
Ca 6.34836640 1.88540785 2.53515393
Ca 5.62475756 12.05330351 1.74446492
Ca 8.36773769 7.72061107 4.00765289
Ca 5.75452907 12.73449370 7.88733852
Ca 5.72320354 6.01301617 0.38318725
Ca 3.60832090 5.36351640 7.79977927
Ca 13.40345170 9.98476164 2.58351328
Ca 13.12545951 13.08980222 9.15101650
Ca 0.15768815 6.40377442 2.96847917
Ca 4.30465206 4.76943608 11.67088634
Ca 8.37767022 10.34108540 10.04160195
Ca 10.20700337 12.19231422 4.36257444
Ca 5.09382885 10.05366037 9.90893843
Ca 9.36838806 0.69983897 10.19336463
Ca 1.75271816 6.01716151 13.07422083
Ca 8.04253337 11.02812730 6.84233762
Ca 2.62699421 10.13466312 8.64326314
Ca 4.63242369 1.96576631 0.51220602
Si 7.45974125 12.63093321 4.45276277
Si 12.35650817 13.00562568 11.91797321
Si 6.50052230 13.03027139 10.68432068
Si 1.10243074 4.99845309 10.08462577
Si 2.35325515 12.68476384 2.63348998
Si 0.91782897 0.55739368 4.59853563
Si 9.33292273 2.20394330 2.79006303
Si 5.89650724 6.57852729 8.80184439
Si 4.75607362 1.83633261 5.91643829
Si 11.67219371 11.27428891 7.62492327
Si 4.98704521 8.64334243 6.63732922
Si 4.13978308 9.13688666 0.21922441
Si 7.98860698 0.32689409 13.60919678
Si 2.61295283 2.52051074 8.29340280
Si 8.58855438 6.75884282 7.76958689
Si 10.92404683 10.56266034 1.28223384
Si 10.87338611 9.36519804 12.16531431
Si 7.94306719 0.96773934 6.73661178
Si 9.73973170 4.70418255 10.04819859
Si 2.06784237 7.63553917 5.69430540
Si 12.62113991 1.06223736 5.70397576
Si 7.03191067 8.44289201 12.16840694
Si 6.14764030 1.86239497 10.88642764
Si 2.17314501 0.25777164 7.74401748
Si 0.74683166 3.27383008 1.24572226
Si 12.07375410 8.25658529 5.84567534
Si 7.80707287 5.31292233 2.38175174
O 6.46908334 2.54034057 12.12245577
O 1.46099469 13.58595797 6.39754284
O 9.76069102 9.52310834 1.62987376
O 11.98722880 11.47706224 5.83798959
O 7.51433315 5.38973148 4.21125804
O 1.31498419 1.58545528 7.76847471
O 8.41518840 6.62769418 6.18628061
O 8.70856650 5.38081133 8.72817414
O 6.51600125 0.84614696 0.26335846
O 7.28323352 10.03519203 11.67778945
O 10.83149034 1.75165728 3.50331360
O 13.48806254 5.61087779 0.75233518
O 1.24925601 11.81271284 1.41003492
O 5.07554686 2.86867649 4.55567897
O 2.59364463 8.73425991 4.58116514
O 2.17341116 6.04574768 11.06548375
O 13.08668460 2.67779530 1.62877761
O 4.82016739 7.83202849 9.02914735
O 10.72372258 5.07261075 11.16259917
O 3.52854325 13.28328728 1.92782796
O 13.08677036 2.72953095 5.03591853
O 4.75435711 10.94221388 3.79821066
O 8.19032886 12.59908494 0.37443484
O 6.89831549 10.70880998 9.07588119
O 8.85146530 3.42995958 10.78392370
O 12.95658808 10.89832920 8.18939268
O 4.07091755 7.99045209 1.18140153
O 12.45004525 13.45743430 13.54837503
O 10.80137105 11.58736101 2.28620518
O 5.13322336 12.34568526 10.13575392
O 8.13192213 13.23924570 7.45737251
O 13.19289651 8.07095450 4.45744364
O 1.82619373 2.67812426 0.18881910
O 10.78701622 4.80694576 8.83229099
O 1.70731503 4.57215340 1.45118487
O 2.10489097 3.94070635 8.92564263
O 6.21065755 5.76204085 7.37397996
O 7.20865916 7.40633851 9.33209066
O 8.01819021 7.90412475 13.20783549
O 2.01451985 12.58967481 4.43397529
O 7.90120472 6.84425221 1.76071636
O 9.46754978 1.76625325 6.78392692
O 10.15622239 8.08635052 11.69258046
O 6.66694128 12.24430516 5.84944629
O 3.38114415 7.54088484 6.99455156
O 4.93329001 4.05083099 0.66081061
O 5.17690482 10.17440315 0.51155102
O 9.92602344 4.10070621 3.07894739
O 3.01492209 1.11457654 9.09915350
O 8.95138597 1.39706144 1.35082633
O 12.38461792 0.75658146 7.22702322
O 2.75783552 12.16522185 8.53528112
O 4.28090945 1.75355586 11.54989758
O 12.56156831 9.25047440 11.72763447
O 0.36099377 6.08295645 9.15083045
O 12.05912413 9.35433547 1.06968590
O 4.15075459 9.91207425 7.38583893
O 12.99364204 0.47257114 4.37194302
O 10.86736187 7.86444973 4.99638397
O 8.04169065 12.80259667 10.31346934
O 9.44115169 1.04478660 12.54686876
O 13.64903182 12.24217981 11.32672630
O 3.74155847 0.68974073 6.11765408
O 0.51841077 3.84599396 11.46442580
O 5.76103201 13.52875562 12.11360841
O 6.59443050 1.08106432 9.67781447
O 2.87091260 9.20006396 12.76213048
O 10.31604535 10.76135781 8.48788334
O 6.19399620 8.92450609 5.76071699
O 1.01026429 6.51899844 5.79952718
O 5.46546296 8.10991683 12.72090374
O 4.18984135 3.02929129 7.33508432
O 8.45266071 10.80819331 4.58632434
O 10.58644697 10.63174505 12.71248543
O 6.12006928 1.31289077 6.63340586
O 11.59467094 13.47723487 10.38227811
O 7.38635950 4.34715929 1.10190240
O 7.80559415 0.71150809 4.85445218
O 7.32746688 12.93298794 3.01160601
O 4.95670139 4.98122031 9.86280915
O 1.27152527 0.38102045 2.90681873
135
Time=600000.00000594 pbc="T T T" Lattice="13.67086365 0.00000000 0.00000000 0.00000000 13.67086365 0.00000000 0.00000000 0.00000000 13.67086365" energy=-848.08600114 virial="-13.12123853 -10.11236368 -6.27714601 -10.11236368 -44.95333772 -7.10140008 -6.27714601 -7.10140008 -19.53726346" stress="0.01763058 -0.00395790 -0.00245683 -0.00395790 0.00517175 -0.00277943 -0.00245683 -0.00277943 0.01511940" Properties=species:S:1:pos:R:3
Ca 4.16494964 2.35601436 8.06695744
Ca 11.42478692 7.14409406 11.70789855
Ca 7.86436585 6.21106397 7.17044048
Ca 5.76276597 7.67741883 2.06804269
Ca 7.92569781 0.76624486 3.19583342
Ca 0.37291957 10.37101117 7.10038841
Ca 8.98995864 11.58150237 11.02088128
Ca 12.26696026 13.13689153 8.86239004
Ca 0.63978444 6.27247111 1.31930796
Ca 0.35200024 2.65494541 12.34263721
Ca 9.40913285 12.19846327 6.60730183
Ca 7.86072914 2.86728431 5.22019141
Ca 0.35354410 9.85116542 3.63389752
Ca 6.82960977 0.64357219 9.58325461
Ca 10.21954904 3.86475996 12.56011495
Ca 5.33588063 6.25207622 5.04999440
Ca 10.84117541 4.30228272 8.14726130
Ca 7.23446889 2.79605794 0.07682294
Ca 2.49012092 5.24568054 6.58488009
Ca 8.97229470 8.80903785 5.67126599
Ca 9.65831609 2.21611986 1.70099033
Ca 5.92256565 10.95342987 2.02090156
Ca 2.88053183 11.84928868 5.94846350
Ca 10.81144460 0.91183238 5.09892649
Ca 11.17383482 4.94635493 3.49092724
Ca 2.63481580 11.65056884 10.28943156
Ca 0.31165034 12.27463648 0.79732052
Si 4.53741195 12.01766795 8.25159227
Si 12.27804001 10.64384435 10.42841381
Si 11.26923555 0.08808654 11.33217056
Si 2.39985246 6.81621993 3.68149041
Si 12.18846327 9.52874225 0.82793001
Si 8.82758306 11.54985425 3.56872182
Si 0.91070152 8.73174039 12.15813054
Si 4.37649292 0.71684346 3.79085897
Si 3.46012216 4.94604232 10.09468895
Si 3.30434909 9.27457553 13.66252635
Si 1.58094541 1.34588868 5.51652505
Si 8.17707602 5.18230897 2.21801807
Si 1.16549955 7.94193267 5.46800016
Si 9.52531260 0.95793145 8.61179798
Si 8.61087604 0.04011419 13.12323594
Si 3.41618610 0.98059287 11.43665796
Si 4.05942579 12.66446135 0.85668241
Si 13.26603095 12.58652703 4.90175586
Si 4.23822024 3.50357353 3.18586035
Si 6.03919572 12.99289518 6.33667246
Si 7.33087286 9.96821105 12.95894302
Si 7.88132870 6.65261160 13.62402373
Si 11.46694496 8.64224118 7.74526255
Si 13.62421114 6.26382365 8.25630606
Si 3.16790782 4.48575175 13.62829398
Si 9.69311427 6.15585623 10.32043692
Si 0.25082339 4.37882208 3.73945280
O 13.49811063 4.05075935 2.31370774
O 9.28926594 12.89966127 4.42472278
O 1.93603598 8.15685461 2.84501556
O 13.28828026 8.50903881 5.52856034
O 0.51381995 11.25679750 9.77309023
O 0.26655446 0.48956006 5.11082398
O 8.87697177 12.74359976 2.52783869
O 0.16749117 11.92093507 3.16944941
O 8.83817759 7.13408502 1.38816082
O 4.89344753 8.73377510 13.43980104
O 0.38722486 7.24137613 12.17905679
O 9.55521559 10.62446219 4.71583994
O 9.48453380 1.98226899 13.21117652
O 10.32481583 9.53206085 8.89515988
O 13.09074196 4.84630678 4.93346024
O 1.58395199 4.94949317 0.19379794
O 0.49613458 9.84476648 13.50250878
O 4.63501469 11.16371352 9.70699922
O 4.86849529 12.92982375 2.75912083
O 3.14943109 12.35034009 7.76797435
O 2.57916673 9.45273652 12.16632173
O 1.40103762 5.60733600 3.51420451
O 10.03815120 6.58668964 6.42461594
O 11.74413188 12.53027382 4.90528653
O 6.56494258 11.24354437 12.90841472
O 11.63159523 12.28235152 11.88917311
O 4.51685199 2.08268730 2.53808740