80
Time=50000.00000004 pbc="T T F" Lattice="13.12862340 0.00000000 0.00000000 -6.56431170 11.36972138 0.00000000 0.00000000 0.00000000 26.82809424" energy=-595.04598713 virial="11.15650053 -0.05741418 -0.61864330 -0.05741418 9.70729121 3.95769305 -0.61864330 3.95769305 -8.01619403" stress="0.00381882 -0.00001434 -0.00015448 -0.00001434 0.00345693 0.00098829 -0.00015448 0.00098829 -0.00096885" Properties=species:S:1:pos:R:3
Sc -0.00792227 1.91544633 12.15699299
Sc -1.65731880 4.63728396 12.24126395
Sc -3.39183699 7.60295623 12.10599668
Sc -4.93709782 10.51179778 12.04776305
Sc 3.21333747 1.87902348 12.22209575
Sc 1.73497981 4.76765221 12.05119431
Sc -0.07475505 7.50667890 12.15523165
Sc -1.70064758 10.38178983 12.19925613
Sc 6.48557619 1.85770404 12.12352056
Sc 4.91651329 4.71370267 12.17163828
Sc 3.47312650 7.57075159 11.85874134
Sc 1.69641910 10.41529201 12.22343012
Sc 9.82147283 1.94457728 12.19452240
Sc 8.19971566 4.66206734 12.19888212
Sc 6.61737345 7.65446127 11.99141038
Sc 5.07523271 10.46285486 12.11276054
Sc 1.56663391 1.00441487 14.79078201
Sc 0.07890385 3.94150427 14.72100560
Sc -1.73538214 6.63622460 14.63732862
Sc -3.29612878 9.51270307 14.59096690
Sc 4.83654051 0.86285108 14.63003951
Sc 3.27047281 3.79897549 14.61991494
Sc 1.61705413 6.73658917 14.70794933
Sc 0.23637660 9.46044569 14.75483381
Sc 8.31066338 0.91261232 14.69290218
Sc 6.52110794 3.63511182 14.79460687
Sc 4.87888479 6.49882730 14.70763683
Sc 3.48355561 9.49933857 14.62435854
Sc 11.49170647 1.13636914 14.70327825
Sc 9.84143945 3.75594598 14.68877183
Sc 8.17835379 6.51111355 14.74094525
Sc 6.54438757 9.35085933 14.86130103
F 0.10714930 2.08476366 15.84510871
F -1.76081030 4.82688892 15.84486175
F -3.32425234 7.24470761 15.85996571
F -4.86321130 10.40354685 15.86080063
F 3.18193556 1.92638457 15.74505465
F 1.76904561 4.86550963 15.88231706
F -0.00203555 7.45014027 15.94894824
F -1.94336889 10.50458500 15.82846077
F 6.42861253 1.74576668 15.65607631
F 4.76349742 4.78031586 16.09364847
F 3.44049829 7.61944172 15.68923566
F 1.75757370 10.43970814 15.92629404
F 10.04165226 2.07769527 15.94502459
F 8.13481613 4.65758346 15.85754789
F 6.43273676 7.37095768 15.82424900
F 4.90129017 10.44426754 15.81031165
F 1.47446936 1.09160251 10.87442792
F -0.15951671 3.90084579 10.98831412
F -1.71224307 6.69924493 11.01862374
F -3.36218857 9.46339572 10.91663632
F 5.04228746 0.87364354 11.05644573
F 3.31110243 3.58624406 10.98389499
F 1.62522174 6.74672117 10.90287734
F -0.05885171 9.36268438 11.21409562
F 8.16210076 0.97057702 11.04995781
F 6.52955893 3.89337622 11.07739684
F 5.30610462 6.51538271 10.84700896
F 3.31404213 9.63003476 10.87101994
F 11.26740724 1.07624635 10.91516336
F 9.95626267 3.83958130 10.95672892
F 8.25878532 6.81302704 11.01531405
F 6.46923561 9.51598542 10.77316561
C 0.10781349 0.01436649 13.37663298
C 11.45750794 2.78501056 13.42348704
C 9.75058123 5.66177880 13.40498663
C 8.12498821 8.57376319 13.37266143
C 3.26620542 0.05610816 13.28861246
C 1.56413763 2.82358214 13.39530839
C -0.00856560 5.71545114 13.36090844
C -1.70322521 8.44757542 13.44365468
C 0.00060668 11.32958917 13.49014164
C 4.84829644 2.81452162 13.49574057
C 3.34238136 5.62250456 13.23819017
C 1.76255029 8.54505428 13.51114702
C 9.93358989 0.02334532 13.50030801
C 8.11072823 2.91135146 13.51642537
C 6.57236048 5.67341831 13.49863853
C 4.95951356 8.45614700 13.30881174
80
Time=99999.99999996 pbc="T T F" Lattice="13.12862340 0.00000000 0.00000000 -6.56431170 11.36972138 0.00000000 0.00000000 0.00000000 26.82809424" energy=-594.59442043 virial="19.10625837 -0.55673748 -3.89070026 -0.55673748 16.04755876 -2.34262681 -3.89070026 -2.34262681 12.53443588" stress="0.00580398 -0.00013902 -0.00097156 -0.00013902 0.00504018 -0.00058498 -0.00097156 -0.00058498 0.00416291" Properties=species:S:1:pos:R:3
Sc 0.01969978 1.76331123 12.09869910
Sc -1.71503349 4.70872543 12.04469634
Sc -3.35423368 7.60277793 12.11367364
Sc -4.97720959 10.34924310 12.22682062
Sc 3.29823559 1.96818909 12.22807779
Sc 1.65091558 4.67978478 12.11993350
Sc 0.02779989 7.56008752 12.07032918
Sc -1.62681471 10.34787750 12.16002527
Sc 6.47582067 1.91843073 12.18338401
Sc 4.99983785 4.76786605 12.28406029
Sc 3.22718276 7.60820082 12.10216185
Sc 1.49176884 10.64126898 12.14635422
Sc 9.80984704 1.87676740 12.04471923
Sc 8.24033145 4.74395072 12.14973411
Sc 6.45789254 7.45483673 12.22162200
Sc 4.83779002 10.50956424 12.22023346
Sc 1.78754062 1.04519305 14.69693986
Sc -0.07392626 3.81689643 14.64625611
Sc -1.57217133 6.62367178 14.61817698
Sc -3.43365910 9.46440411 14.74020211
Sc 5.01551607 0.88682295 14.75219415
Sc 3.29310366 3.81989859 14.77411714
Sc 1.65932565 6.69966247 14.43958741
Sc 0.17802321 9.53876973 14.72632833
Sc 8.23486474 0.99317399 14.72418060
Sc 6.68760407 3.73248356 14.72405778
Sc 4.67277914 6.58742734 14.80483159
Sc 3.15754968 9.60615007 14.62527744
Sc 11.49800749 0.99008134 14.59426050
Sc 9.81452210 3.78320628 14.60450626
Sc 8.23402977 6.71594118 14.79427840
Sc 6.47038153 9.38726564 14.66658439
F -0.14662123 1.97210707 15.76335098
F -1.62089928 4.59203149 15.66223586
F -3.21796588 7.56618092 15.90190742
F -4.84784216 10.56754608 15.88389816
F 3.45313620 1.87285554 15.94616345
F 1.77367030 4.88681611 15.78786086
F -0.15670507 7.58988713 15.70529061
F -1.51228580 10.31473371 15.75586514
F 6.73429048 1.67422098 15.90176672
F 4.97982371 4.81267069 15.86137970
F 3.10951402 7.45662260 15.90981920
F 1.60888534 10.43500920 15.99985803
F 10.03965640 2.04015133 15.80199974
F 8.26565254 4.87564898 15.83764202
F 6.47128761 7.59537340 15.75952031
F 4.95795563 10.29935754 15.65753655
F 1.79445828 0.87796676 11.21660479
F 0.31037274 3.58385153 10.85114274
F -1.74662257 6.56698835 10.86533978
F -3.11460388 9.40225811 11.11429626
F 5.09431194 0.85285259 11.14727094
F 3.51240904 3.74933358 11.14187253
F 1.50091232 6.47716380 10.92095028
F 0.07839397 9.59031579 10.95794256
F 8.14750472 1.00777641 10.93095154
F 6.60309379 3.91731255 11.04793354
F 4.70325676 6.51792561 10.99977468
F 3.58249041 9.58537562 11.05057307
F 11.39687767 0.81326207 10.85988032
F 9.71494033 3.71440766 10.97620235
F 8.18120375 6.62627895 10.82311098
F 6.35176247 9.40516319 11.16264730
C 0.03254267 0.12180554 13.42624275
C -1.59060641 2.84536283 13.19869676
C 9.91249510 5.54911870 13.36775947
C 8.16152110 8.54499974 13.37616680
C -3.34746450 11.36489089 13.30864627
C 1.80867463 2.95267083 13.45905843
C -0.02101788 5.64205164 13.43759530
C -1.54182302 8.52856038 13.40388540
C 6.69606260 0.09456901 13.48098939
C 4.93775322 2.71753337 13.53507346
C 3.27822969 5.71219166 13.35946204
C 1.67868500 8.63041165 13.28882963
C 9.80114951 0.06080808 13.30845191
C 8.18924448 2.81517171 13.44748358
C 6.65830071 5.60437355 13.46318101
C 4.91288628 8.43845263 13.47510508
80
Time=149999.99999957 pbc="T T F" Lattice="13.12862340 0.00000000 0.00000000 -6.56431170 11.36972138 0.00000000 0.00000000 0.00000000 26.82809424" energy=-594.58199453 virial="8.45698313 1.41309351 10.97283854 1.41309351 8.51304793 3.86684760 10.97283854 3.86684760 -14.43881211" stress="0.00314471 0.00035287 0.00274006 0.00035287 0.00315871 0.00096560 0.00274006 0.00096560 -0.00257267" Properties=species:S:1:pos:R:3
Sc -0.00198046 1.95325293 12.14955339
Sc -1.62504465 4.72891501 12.06572366
Sc -3.26040281 7.63869746 12.10281006
Sc -4.90962732 10.43684473 12.18231802
Sc 3.18384815 1.99035419 12.07369849
Sc 1.74906411 4.71519732 12.15183682
Sc 0.00464381 7.64356634 12.11589907
Sc -1.52957226 10.34035200 12.16329712
Sc 6.71752016 1.90589403 12.04865421
Sc 4.97242566 4.71822740 12.01328141
Sc 3.28552776 7.63699517 12.05039233
Sc 1.66354900 10.43162983 12.38145713
Sc 9.73977664 1.87288552 12.12849817
Sc 8.29698237 4.78200813 12.10206333
Sc 6.57127816 7.67178593 12.15033951
Sc 4.94380131 10.44715222 12.28759004
Sc 1.63497914 1.13840130 14.73346351
Sc -0.04638185 3.77863008 14.62863344
Sc -1.63432230 6.57484215 14.68205328
Sc -3.35128973 9.52399650 14.65684962
Sc 4.90648814 0.91290064 14.64338781
Sc 3.34688242 3.75657873 14.69187026
Sc 1.58452527 6.56498824 14.63708199
Sc -0.01175440 9.38990772 14.79158629
Sc 8.18665551 0.95536394 14.88728267
Sc 6.58054130 3.80980045 14.52758954
Sc 4.92084126 6.60179051 14.47199819
Sc 3.23662379 9.49138532 14.71367588
Sc 11.50392517 0.97423124 14.78892417
Sc 9.80166763 3.84592190 14.74301119
Sc 8.16288667 6.67201223 14.62831423
Sc 6.60336184 9.38569289 14.85772107
F 0.08593065 1.99843876 15.99263732
F -1.61850204 4.74217725 15.76405839
F -3.43749951 7.66529929 15.79960707
F -5.31295745 10.33603458 16.15167942
F 3.29312856 1.94878544 15.84585045
F 1.61443483 4.75170849 15.92964269
F -0.03748000 7.39639622 15.93411956
F -1.74134429 10.38480618 15.87947321
F 6.50180084 1.91126375 15.91844362
F 4.92311385 4.63342831 15.81650605
F 3.09262128 7.47449453 15.63033511
F 1.85083009 10.40592624 15.81646933
F 9.74873055 1.94269256 16.05106225
F 8.15385221 4.79233924 15.83946030
F 6.41423283 7.52874531 15.78683128
F 4.85739874 9.89516067 16.07351917
F 1.74879200 0.80715431 10.90917608
F -0.19671952 3.65698162 10.86940133
F -1.42690553 6.60564645 10.85109415
F -3.14760354 9.47950777 11.14549304
F 5.03301423 0.81074768 11.10943256
F 3.12592739 3.84898462 10.64784376
F 1.57270245 6.50747134 10.98408015
F 0.08768193 9.74295595 10.98596774
F 8.30505926 1.03579174 11.09673129
F 6.59270290 3.55924033 10.65147221
F 4.96340483 6.75557118 10.72929129
F 3.20480070 9.44843457 11.00328170
F 11.48536658 0.93373139 11.08715288
F 9.79596716 3.76672531 10.96429373
F 8.28420520 6.62189151 10.95974880
F 6.64644443 9.69760554 11.15532677
C 0.11098798 0.07900155 13.38681644
C 11.44899213 2.86413997 13.46323168
C -3.32283239 5.78837179 13.33622576
C -4.91239258 8.51429606 13.45709897
C -3.31912067 11.31619577 13.48794215
C 1.65787312 2.89134382 13.35615716
C -0.09005981 5.61550461 13.40690270
C -1.55228895 8.49582396 13.48740264
C 6.67932544 0.00185380 13.55207265
C 4.91295966 2.84357959 13.33179884
C 3.25048447 5.55441390 13.26768393
C 1.54041461 8.38813409 13.32548755
C 9.83168670 0.05028719 13.56285983
C 8.21330995 2.91528127 13.36106133
C 6.77498309 5.75709364 13.16637077
C 4.87818157 8.42232595 13.46496310
80
Time=199999.99999918 pbc="T T F" Lattice="13.12862340 0.00000000 0.00000000 -6.56431170 11.36972138 0.00000000 0.00000000 0.00000000 26.82809424" energy=-595.06290054 virial="9.01602206 -0.64607395 -5.02732181 -0.64607395 10.95040562 7.02605371 -5.02732181 7.02605371 -1.29056555" stress="0.00328431 -0.00016133 -0.00125539 -0.00016133 0.00376735 0.00175450 -0.00125539 0.00175450 0.00071062" Properties=species:S:1:pos:R:3
Sc -0.00767523 1.85208430 12.21904685
Sc -1.64731790 4.87845055 12.12360551
Sc -3.34229829 7.61068986 12.25528776
Sc -4.96656760 10.41262297 12.24792376
Sc 3.34564377 1.94869944 12.18601806
Sc 1.52816905 4.77739266 12.14667978
Sc -0.15202484 7.73425668 12.19764337
Sc -1.80597567 10.48244912 12.26035037
Sc 6.58517303 1.75137179 12.06312566
Sc 4.96321022 4.71212500 12.24002331
Sc 3.24710749 7.53498105 12.00264128
Sc 1.70219338 10.47789021 12.05658388
Sc 9.86425256 1.98808424 12.01888549
Sc 8.20071345 4.82418504 11.93430103
Sc 6.49809890 7.66982457 12.05364064
Sc 4.82684360 10.44477487 12.15024883
Sc 1.73549721 0.95964448 14.75434089
Sc -0.02606675 3.79291557 14.72430204
Sc -1.70098185 6.55817794 14.57581723
Sc -3.36690548 9.40656986 14.79228370
Sc 4.96480388 1.00036212 14.75196413
Sc 3.20279133 3.77740187 14.70292174
Sc 1.57454882 6.69923551 14.68385021
Sc 0.13195590 9.40235736 14.73907217
Sc 8.28046429 0.92170799 14.57623204
Sc 6.55436356 3.81323890 14.59735907
Sc 4.84418944 6.47926783 14.52516806
Sc 3.36482140 9.56224008 14.65275667
Sc 11.56220399 1.00678009 14.74933056
Sc 9.85830629 3.71740269 14.60159543
Sc 8.14033823 6.43757822 14.67733928
Sc 6.61126099 9.45246536 14.73557926
F 0.13642620 1.82685312 16.10918319
F -1.66261138 4.84097351 15.75497810
F -3.36709445 7.59706553 15.87369556
F -4.88920837 10.41330311 15.82361255
F 3.21864202 1.89364816 15.90229745
F 1.73988051 4.67966687 15.92075542
F 0.14138629 7.52459773 15.95529874
F -1.62312631 10.44865364 15.91493431
F 6.62726640 2.14356110 15.90136285
F 5.04814289 4.59725461 15.73838859
F 3.29308437 7.35917055 15.91687281
F 1.69686795 10.47499929 15.78723972
F 10.10032029 1.99279266 15.83640793
F 8.20174264 4.39409858 15.94324184
F 6.33405952 7.35961921 15.72895136
F 4.90974875 10.48718195 15.99075316
F 1.70535284 0.96686177 11.00919922
F -0.05768916 3.91263726 11.01004991
F -1.57869481 6.72714048 11.02211371
F -3.52419992 9.45144912 10.95125001
F 4.78685442 0.94387719 11.11760859
F 3.43039185 3.78172691 11.14363759
F 1.63859013 6.40469591 10.74182085
F -0.00063634 9.75572834 11.08418165
F 8.16552003 0.89772588 10.74861581
F 6.61849763 3.87971097 10.89998497
F 5.08638086 6.60062827 10.86829228
F 3.42600230 9.33165130 11.01317096
F 11.53719254 0.91363006 10.98271660
F 9.89247283 3.82409456 11.07486998
F 8.18596726 6.63554490 11.07145272
F 6.57352916 9.52258831 11.10017462
C -6.45292404 11.36357018 13.41458348
C -1.58628843 2.89401776 13.40088870
C 9.76461394 5.75788601 13.40548732
C -4.95609260 8.59350601 13.49306367
C 3.29193435 0.05271660 13.52430814
C 1.67028299 2.83117115 13.43845572
C -0.00141530 5.79034526 13.37365050
C -1.73024061 8.63331107 13.45441660
C 6.70223814 0.01784146 13.40076299
C 5.00005872 2.73995689 13.41548424
C 3.20694444 5.55614648 13.41094161
C 1.72997368 8.47517421 13.48378235
C 3.35157270 11.30018654 13.34244860
C 8.35761184 2.81143964 13.21955912
C 6.65293113 5.65770616 13.38100279
C 4.89293791 8.36598406 13.32741317
80
Time=249999.99999879 pbc="T T F" Lattice="13.12862340 0.00000000 0.00000000 -6.56431170 11.36972138 0.00000000 0.00000000 0.00000000 26.82809424" energy=-594.07039738 virial="6.36588551 -1.20981652 -1.31115764 -1.20981652 13.67985502 -6.08610637 -1.31115764 -6.08610637 -5.88493194" stress="0.00262254 -0.00030211 -0.00032741 -0.00030211 0.00444893 -0.00151978 -0.00032741 -0.00151978 -0.00043665" Properties=species:S:1:pos:R:3
Sc 0.01008715 1.95536269 12.20222839
Sc -1.72752207 4.82570796 11.96302180
Sc -3.22084276 7.53239448 12.22297857
Sc -4.85962441 10.42479704 12.23207626
Sc 3.41227553 1.87559053 12.32065263
Sc 1.64480359 4.55279440 12.08101008
Sc -0.03311652 7.61524244 12.09242622
Sc -1.68100625 10.42682136 12.21060934
Sc 6.46717976 1.89265251 12.12682717
Sc 4.97492793 4.62855366 12.23074824
Sc 3.36411901 7.39685552 12.05964599
Sc 1.74577728 10.49902342 11.90608236
Sc 9.86016448 1.97692436 12.15646883
Sc 8.08099032 4.89405432 12.04333897
Sc 6.58058998 7.77012695 12.10706042
Sc 4.92907719 10.44784234 12.09755577
Sc 1.66945742 1.05586645 14.87950172
Sc -0.14591939 3.82675218 14.81226010
Sc -1.60959877 6.46505523 14.70421071
Sc -3.19528207 9.40656094 14.75175009
Sc 4.88046174 0.91787284 14.86505634
Sc 3.22977299 3.75421052 14.68341773
Sc 1.49616599 6.65630723 14.53832815
Sc 0.20037559 9.57163235 14.46575070
Sc 8.15608868 0.97304977 14.49909511
Sc 6.63880061 3.89979097 14.57805763
Sc 4.81702930 6.66002532 14.57263555
Sc 3.21704990 9.44779628 14.58656637
Sc 11.52053057 0.93080399 14.76867233
Sc 9.74975625 3.80463957 14.65191479
Sc 8.18821275 6.67332195 14.73141540
Sc 6.55023826 9.42645696 14.78588137
F -0.15142373 1.96757396 16.10063966
F -1.85950354 4.77797134 15.94987602
F -3.18239205 7.44181952 16.08006665
F -4.79991914 10.33576243 15.84929086
F 3.32672193 1.68871817 15.93837874
F 1.59387266 4.88987514 15.85604698
F -0.05627006 7.59603781 15.72953210
F -1.25493581 10.47851036 15.80220220
F 6.66695963 2.18954743 15.85204690
F 4.75114669 4.98439243 15.73896959
F 3.16743377 7.59951847 15.74199434
F 1.89598532 10.36318575 15.89145139
F 9.73243013 1.79437874 15.89877190
F 8.24707859 4.64477629 15.76604287
F 6.57452012 7.34716206 15.94075554
F 4.98769193 10.39688150 16.05354773
F 1.61763089 0.85306878 11.16941650
F -0.03970826 3.64056686 11.00433097
F -1.45591182 6.63118912 10.85889138
F -3.33889006 9.48777450 11.06949242
F 4.73730485 0.77648881 11.05496630
F 3.25821188 3.49222237 11.09797456
F 1.59434229 6.31519478 11.02381268
F -0.06962299 9.53088582 10.96526573
F 8.29240096 0.85529930 11.06435687
F 6.52972488 3.83124220 10.89535770
F 4.96011128 6.80142597 10.78468945
F 3.39824528 9.53814755 10.82907612
F 11.62093843 1.03107744 11.08902911
F 9.86381158 3.78529894 10.79296319
F 8.00803285 6.75289786 10.98474781
F 6.56335355 9.58416292 11.10567934
C -6.49772355 11.26947005 13.50838715
C -1.54751440 2.83903883 13.53959268
C -3.26322842 5.66371883 13.30055446
C -4.90772253 8.51774656 13.47196812
C 3.16536286 0.05355750 13.57780819
C 1.55584692 2.82660323 13.51145158
C -0.02115923 5.55489662 13.38034614
C -1.62125656 8.52794473 13.44159220
C 6.53233755 0.15209340 13.45390963
C 4.97550657 2.89386308 13.44337603
C 3.21590787 5.62132649 13.40898734
C 1.68617410 8.53938098 13.33062427
C 3.38720052 11.23157810 13.38898543
C 8.21516117 2.81051704 13.25514998
C 6.61511739 5.70653701 13.30637292
C 4.97089552 8.55199786 13.35687419
80
Time=299999.99999840 pbc="T T F" Lattice="13.12862340 0.00000000 0.00000000 -6.56431170 11.36972138 0.00000000 0.00000000 0.00000000 26.82809424" energy=-594.29400206 virial="13.21591248 -0.68266383 1.81409604 -0.68266383 13.72881848 -0.92807353 1.81409604 -0.92807353 -1.33700522" stress="0.00433308 -0.00017047 0.00045300 -0.00017047 0.00446116 -0.00023175 0.00045300 -0.00023175 0.00069903" Properties=species:S:1:pos:R:3
Sc 0.03060997 1.84036102 12.16267265
Sc -1.60694805 4.62412753 12.15319795
Sc -3.36785855 7.60165921 12.20727148
Sc -4.95189630 10.50732924 12.21458828
Sc 3.45100662 1.80948354 12.11219962
Sc 1.67683147 4.70192831 12.23306773
Sc -0.17467984 7.45367968 12.03605530
Sc -1.52070275 10.43842983 12.03432301
Sc 6.61134038 1.83149280 12.06868796
Sc 5.01958952 4.67597216 12.13771202
Sc 3.24549289 7.52169308 12.01845818
Sc 1.67596403 10.45176814 12.02216385
Sc 9.92322244 1.90938334 12.21393767
Sc 8.26313717 4.82840140 11.99508384
Sc 6.39795388 7.64326353 12.30058486
Sc 4.89118315 10.46567774 12.34121134
Sc 1.71480062 1.02021773 14.91556005
Sc 0.10087383 3.75914391 14.83431913
Sc -1.63645232 6.65910449 14.63786088
Sc -3.34415625 9.52623891 14.59384102
Sc 4.94015213 0.85189433 14.65218142
Sc 3.38810139 3.71959928 14.73355395
Sc 1.72407501 6.62787583 14.49814942
Sc -0.03092718 9.29823960 14.58794082
Sc 8.16103986 1.04586182 14.71660820
Sc 6.70909941 3.79850088 14.64657926
Sc 4.89298406 6.61300886 14.73898896
Sc 3.05011411 9.35322414 14.65615391
Sc 11.47633441 0.99062096 14.75548307
Sc 9.92315725 3.82010969 14.77816529
Sc 8.19545618 6.57862928 14.69257797
Sc 6.46140586 9.57551719 14.67272423
F 0.13086218 2.11163563 16.01394300
F -1.73367426 4.86795288 15.88868700
F -3.44390238 7.66042314 15.89657501
F -5.02193174 10.48551202 16.04913083
F 3.34759807 1.80802002 15.73259303
F 1.63158402 5.03825611 15.81808231
F -0.00702165 7.51696586 15.64899348
F -1.43729438 10.58524307 15.81477550
F 6.70404886 2.00030838 15.81367865
F 5.09630911 4.72557090 15.82010834
F 3.06301509 7.37772206 15.77332567
F 1.49881289 10.28431951 15.69835112
F 9.77706520 1.76422007 15.95160018
F 8.38539518 4.44108159 15.96260834
F 6.49864353 7.76326737 15.83391799
F 4.49450575 10.42418332 15.88165651
F 1.68109958 1.03581241 11.23133305
F -0.16814740 3.59453063 10.88488866
F -1.72149561 6.78739145 10.90593417
F -3.31303891 9.58176849 10.89859821
F 4.93017415 0.96600600 10.97634511
F 3.33962488 4.06624311 10.99731555
F 1.57531252 6.73423368 10.93678000
F -0.09703940 9.51945885 10.91325946
F 7.95603111 0.91798839 10.93672166
F 6.60570118 3.65760317 10.88604700
F 5.12044776 6.47239003 10.90365907
F 3.36212345 9.57935166 10.81836465
F 11.39162484 0.95931586 11.04969129
F 9.85477970 3.69284398 10.88942412
F 8.33295452 6.52027774 10.92800723
F 6.54629362 9.61549230 11.28552123
C 13.01715760 0.07023362 13.52052302
C -1.58545593 2.86767329 13.58731552
C -3.24743181 5.75651301 13.32013686
C -4.94837260 8.68324802 13.46802704
C 3.13998920 0.03173708 13.47096299
C 1.71379011 2.97767262 13.42459336
C -0.06262688 5.70162332 13.35218874
C -1.68298491 8.54417809 13.39548442
C 6.61813405 0.00423106 13.38161875
C 4.97171328 2.84064979 13.31728218
C 3.39091233 5.54579736 13.37080288
C 1.65272948 8.51637833 13.20354351
C 9.81919028 0.00586980 13.47050553
C 8.29149467 2.81110636 13.38457998
C 6.67033096 5.71074221 13.34050693
C 4.80363830 8.53508655 13.52747249
80
Time=349999.99999862 pbc="T T F" Lattice="13.12862340 0.00000000 0.00000000 -6.56431170 11.36972138 0.00000000 0.00000000 0.00000000 26.82809424" energy=-594.53422594 virial="6.90213446 -0.01317127 -2.36617736 -0.01317127 2.92815361 -6.98781794 -2.36617736 -6.98781794 -21.20378769" stress="0.00275645 -0.00000329 -0.00059087 -0.00000329 0.00176409 -0.00174495 -0.00059087 -0.00174495 -0.00426197" Properties=species:S:1:pos:R:3
Sc 0.00870376 1.82455440 12.33408944
Sc -1.59114561 4.65854679 12.16219876
Sc -3.29868739 7.56261536 12.13135512
Sc -4.94761987 10.34867878 12.14855478
Sc 3.24754778 1.75574910 12.04412126
Sc 1.50491754 4.78483092 12.17012132
Sc 0.02632739 7.73396429 12.11833876
Sc -1.51556375 10.37155124 12.14620076
Sc 6.55999799 1.89481130 11.96275120
Sc 4.86061882 4.63262211 12.07442516
Sc 3.27647048 7.64228241 12.18500903
Sc 1.65464619 10.51253891 12.09671348
Sc 9.93402628 1.83842424 12.01833927
Sc 8.23605404 4.59238024 12.08971723
Sc 6.57798031 7.36023528 12.05929162
Sc 4.93173021 10.32053849 12.19167614
Sc 1.57153868 0.97311022 14.69859444
Sc -0.10337694 3.78992299 14.76825989
Sc -1.58565479 6.66738075 14.76194189
Sc -3.17088170 9.58005665 14.73089089
Sc 4.93898668 0.95282895 14.65612521
Sc 3.38892872 3.92281267 14.72826317
Sc 1.60342592 6.72071214 14.60913817
Sc 0.10176566 9.46950376 14.78201178
Sc 8.17194856 0.97572437 14.66338415
Sc 6.62745305 3.71884803 14.65929314
Sc 4.83697145 6.57353635 14.78161993
Sc 3.39820110 9.57899965 14.64362865
Sc 11.32129518 1.09677491 14.67497210
Sc 9.78354110 3.76891092 14.58919036
Sc 8.07877941 6.64337574 14.67019274
Sc 6.57662154 9.53291635 14.66650601
F -0.00720445 2.07473068 16.09127410
F -1.55565197 4.72307148 15.89768187
F -2.97959844 7.64910740 15.78138442
F -4.92554850 10.43984934 15.96980184
F 3.32603471 2.12028566 15.95136748
F 1.49827323 4.84308079 15.79129639
F 0.20078554 7.60511919 16.06643108
F -1.77061880 10.43441914 15.88593462
F 6.70685027 1.94891403 15.84817984
F 5.00726946 4.55048195 16.04457335
F 3.24072675 7.44350289 15.89691761
F 1.75469346 10.42667035 15.97004352
F 9.59071983 1.91375604 15.79052237
F 8.41291599 4.77414335 15.78583613
F 6.31000510 7.65803752 15.89689528
F 4.92567290 10.44782276 15.90955864
F 1.60682334 0.84387215 10.83787606
F -0.08233649 3.80286787 10.88748624
F -1.78670379 6.70196281 10.91778540
F -3.29848851 9.50016369 11.05180947
F 4.87567693 1.00450194 11.04714406
F 3.25990198 3.82358006 11.16529031
F 1.75494867 6.49203315 10.98664987
F 0.05289238 9.75250487 10.86329559
F 8.27259621 0.93103065 10.81434433
F 6.53897992 3.83297720 10.79464958
F 4.77763766 6.42821306 10.85790690
F 3.35527150 9.59451645 10.97348921
F 11.61381176 0.80928891 11.11453389
F 9.83759604 3.72404158 10.88243136
F 8.19518802 6.42002978 10.94737266
F 6.56927845 9.47647207 11.07543403
C 6.48465835 11.33360423 13.53043472
C 11.45892582 2.82670801 13.35351948
C -3.24264314 5.70677383 13.50168488
C 8.18256103 8.45224412 13.40284611
C 3.20887136 0.02861188 13.43079185
C 1.69869090 2.79007091 13.39984166
C 0.00214666 5.68025142 13.41067457
C -1.56401596 8.54772404 13.28060187
C 6.51130811 0.11992041 13.37857965
C 4.96307612 2.77606528 13.43830416
C 3.21640541 5.73057077 13.43028288
C 1.60665307 8.57964240 13.34370982
C 9.82757022 0.05850677 13.50780646
C 8.09007440 2.92142953 13.43824705
C 6.46141470 5.58437805 13.40912432
C 4.99494689 8.44920655 13.37568221
80
Time=400000.00000008 pbc="T T F" Lattice="13.12862340 0.00000000 0.00000000 -6.56431170 11.36972138 0.00000000 0.00000000 0.00000000 26.82809424" energy=-593.77261829 virial="6.95194738 -0.57717279 -1.12218920 -0.57717279 13.53426986 1.17608060 -1.12218920 1.17608060 -18.10660559" stress="0.00276889 -0.00014413 -0.00028023 -0.00014413 0.00441258 0.00029368 -0.00028023 0.00029368 -0.00348856" Properties=species:S:1:pos:R:3
Sc 0.06034084 1.97515008 12.16339316
Sc -1.56384363 4.80350912 12.08935931
Sc -3.29211482 7.60693235 12.05130233
Sc -4.94221801 10.40103179 12.13444408
Sc 3.21109007 1.84651925 12.14729883
Sc 1.55102564 4.84516982 12.10293939
Sc 0.12569452 7.70404266 12.01083017
Sc -1.77666491 10.43949307 12.08052291
Sc 6.56951697 2.00281987 12.09152660
Sc 4.83599567 4.68920297 12.05205696
Sc 3.29753235 7.58841470 12.24113406
Sc 1.57603378 10.43346114 12.07587148
Sc 9.83847539 2.02787601 12.14521552
Sc 8.10734013 4.73327481 12.23816879
Sc 6.57878645 7.60541991 12.15203100
Sc 5.04849438 10.44794876 12.07484778
Sc 1.57823463 0.91975009 14.69493063
Sc 0.01057217 3.81728772 14.65185503
Sc -1.63139999 6.63399977 14.79026748
Sc -3.14825534 9.33870062 14.68147062
Sc 4.92931507 0.94275097 14.73105173
Sc 3.26480018 3.74368874 14.63760807
Sc 1.67097132 6.44068208 14.75864916
Sc 0.13783079 9.37312755 14.56539221
Sc 8.21850417 1.04331380 14.77799261
Sc 6.53748058 3.76875950 14.69726656
Sc 5.05110098 6.60682966 14.57198467
Sc 3.20322190 9.48969235 14.73986555
Sc 11.43814031 1.02054039 14.84579866
Sc 9.90664789 3.80779922 14.62434676
Sc 8.26778924 6.63008149 14.69827851
Sc 6.52701037 9.48035742 14.64773997
F 0.03626150 1.86319979 15.88024246
F -1.72195042 4.59772515 15.96783914
F -3.20655103 7.55720872 15.89287847
F -5.00211387 10.50368616 15.95456574
F 3.17697285 1.96268773 15.86440697
F 1.69766239 4.53226312 16.02400055
F -0.13329024 7.44795061 15.83108437
F -1.87355868 10.56599896 15.97555138
F 6.50484606 1.99032091 15.80262475
F 4.92263980 4.68327467 15.79671537
F 3.62061853 7.58531963 15.86090957
F 1.52405328 10.36499667 15.93675425
F 10.00380206 1.94194913 16.00042437
F 8.26827367 4.58381345 16.02021766
F 6.54380856 7.64602012 15.69867226
F 4.69943400 10.56658491 15.79485830
F 1.73456929 0.89990449 10.94368308
F -0.19297543 3.94360701 10.86191251
F -1.53885881 6.54249996 11.12396750
F -3.39729717 9.25348355 10.81823723
F 4.95834797 0.89852321 11.01858426
F 3.24179607 3.78260075 11.06910464
F 1.54061630 6.52568801 11.06186257
F 0.14738335 9.43054281 10.61636320
F 8.06895139 0.86060244 10.87460716
F 6.52823269 3.77392822 11.04564284
F 5.02178828 6.66788152 11.04068581
F 3.10833611 9.33808214 10.94524096
F 11.57673218 1.21385449 10.86053105
F 9.85999229 3.82588008 11.06832380
F 8.24014498 6.72674725 10.91234265
F 6.65243779 9.38711435 11.05105944
C 6.53550961 11.31000844 13.64015492
C -1.64237609 2.85865112 13.44028480
C -3.28687367 5.70685103 13.35367893
C -4.86825229 8.47206815 13.34507955
C -3.27785026 11.30489153 13.51308130
C 1.61133496 2.82063381 13.41473357
C -0.07374588 5.68436666 13.53963716
C -1.54177640 8.52880183 13.40378463
C -0.09069190 11.26438537 13.52640839
C 4.95902155 2.87529439 13.46721871
C 3.26881113 5.65833787 13.35128833
C 1.70414161 8.41166624 13.64597173
C 3.26451262 11.34497668 13.24768235
C 8.19349341 2.96887047 13.36146576
C 6.58234484 5.58088852 13.52038972
C 4.98751313 8.52759783 13.34071450
80
Time=450000.00000155 pbc="T T F" Lattice="13.12862340 0.00000000 0.00000000 -6.56431170 11.36972138 0.00000000 0.00000000 0.00000000 26.82809424" energy=-593.49869108 virial="7.01275982 2.04132512 5.26534977 2.04132512 12.58916184 -4.93675274 5.26534977 -4.93675274 -19.42858991" stress="0.00278407 0.00050975 0.00131483 0.00050975 0.00417657 -0.00123277 0.00131483 -0.00123277 -0.00381868" Properties=species:S:1:pos:R:3
Sc -0.07965805 2.08854334 11.99615068
Sc -1.61417543 4.87547573 12.11221228
Sc -3.52071926 7.53468162 12.15771291
Sc -4.84364353 10.37179493 12.29405868
Sc 3.29666421 1.89741445 12.08387411
Sc 1.75234153 4.73196950 12.08804442
Sc -0.08689397 7.59048407 12.02237461
Sc -1.61510496 10.39112101 12.10770487
Sc 6.57819033 1.92213545 12.12048204
Sc 5.01818793 4.78798028 12.24561996
Sc 3.37111653 7.63732566 12.10100462
Sc 1.59654839 10.38893389 11.96721903
Sc 9.81464645 1.80006381 11.95793294
Sc 8.11409273 4.61075136 12.17113188
Sc 6.54137884 7.55808839 12.34532388
Sc 4.95095902 10.45443531 12.10747188
Sc 1.62102268 1.06998598 14.83906181
Sc 0.04259804 3.79127376 14.61324226
Sc -1.59308896 6.67497317 14.55437862
Sc -3.17332613 9.40138077 14.77979118
Sc 4.92427557 1.01958596 14.68993119
Sc 3.27485110 3.84743277 14.49200298
Sc 1.60935965 6.75259523 14.58092042
Sc 0.01891280 9.54847678 14.67678477
Sc 8.25213260 0.86763765 14.73705241
Sc 6.69416123 3.76636897 14.73587710
Sc 4.81576694 6.70694902 14.73052626
Sc 3.19184523 9.47908683 14.67301038
Sc 11.49377875 0.90709238 14.56091662
Sc 9.84357598 3.69530390 14.81102230
Sc 8.30240503 6.48382050 15.03698666
Sc 6.46665250 9.43673683 14.87859790
F -0.04870315 1.99362995 15.68158317
F -1.68925804 4.77766025 15.77062514
F -3.08442424 7.60535169 15.87859682
F -4.90019953 10.40979227 15.98134265
F 3.23128908 2.04091690 15.88927636
F 1.43921665 4.92669021 15.71884049
F -0.14835938 7.77375549 15.59490443
F -1.62201553 10.34269278 15.96235188
F 6.67128494 1.73377242 15.82729978
F 4.92198060 4.57835541 15.74824501
F 3.06675165 7.63824642 15.86844316
F 1.71662575 10.57320943 15.86193421
F 9.81528006 1.87607026 16.05288340
F 8.18638913 4.43672912 16.10274078
F 6.48264503 7.56287626 16.28179883
F 4.80794783 10.38238686 15.83758446
F 1.93199832 0.74782897 11.12059367
F -0.05669733 3.60655912 10.83152434
F -1.76797424 6.57435476 11.05893554
F -3.49644741 9.37006966 10.99951415
F 4.95555520 0.84902807 10.89521478
F 3.45772258 3.88684269 10.79251909
F 1.85191957 6.71221854 10.86434555
F 0.26717157 9.25117863 10.63298151
F 8.36431848 0.92941979 10.99844166
F 6.55177775 3.69720171 10.95171412
F 4.89632283 6.69401868 10.96598839
F 3.40393001 9.50245291 11.02994296
F 11.41783541 1.01675565 10.88943666
F 9.71483536 3.69751531 10.96910246
F 8.07300454 6.86562292 10.90488747
F 6.65405243 9.64453038 11.15729163
C 6.55348404 11.27703728 13.54610547
C 11.39311915 2.93904925 13.42752726
C 9.80953230 5.74810516 13.66156128
C 8.16832857 8.40919815 13.49588294
C 3.21836074 0.03923435 13.58475647
C 1.73639446 2.88300925 13.33452657