 running on   52 total cores
 distrk:  each k-point on   52 cores,    1 groups
 distr:  one band on   13 cores,    4 groups
 using from now: INCAR     
 vasp.5.4.4.18Apr17-6-g9f103f2a35 (build Oct 31 2019 15:01:46) complex          
  
 POSCAR found type information on POSCAR  Sc Cl C 
 POSCAR found :  3 types and      80 ions
 scaLAPACK is switched off
 LDA part: xc-table for Pade appr. of Perdew
 generate k-points for:    3    3    1
 POSCAR, INCAR and KPOINTS ok, starting setup
 FFT: planning ...
 WAVECAR not read
 entering main loop
       N       E                     dE             d eps       ncg     rms          rms(c)
DAV:   1     0.121714057943E+05    0.12171E+05   -0.26807E+05  4416   0.152E+03
DAV:   2     0.172020788566E+04   -0.10451E+05   -0.10186E+05  5200   0.521E+02
DAV:   3    -0.403736829359E+03   -0.21239E+04   -0.20387E+04  6800   0.283E+02
DAV:   4    -0.640968588526E+03   -0.23723E+03   -0.23186E+03  6096   0.996E+01
DAV:   5    -0.651576183467E+03   -0.10608E+02   -0.10552E+02  6080   0.281E+01    0.697E+01
DAV:   6    -0.521275124466E+03    0.13030E+03   -0.70779E+02  5840   0.498E+01    0.301E+01
DAV:   7    -0.525412970302E+03   -0.41378E+01   -0.82175E+01  5888   0.228E+01    0.153E+01
DAV:   8    -0.523339598555E+03    0.20734E+01   -0.89786E+00  5680   0.740E+00    0.911E+00
DAV:   9    -0.522911219334E+03    0.42838E+00   -0.35914E+00  5472   0.389E+00    0.286E+00
DAV:  10    -0.522776016330E+03    0.13520E+00   -0.54674E-01  5696   0.216E+00    0.172E+00
DAV:  11    -0.522758358091E+03    0.17658E-01   -0.27739E-01  5712   0.101E+00    0.755E-01
DAV:  12    -0.522745950296E+03    0.12408E-01   -0.40863E-02  5728   0.581E-01    0.326E-01
DAV:  13    -0.522742898748E+03    0.30515E-02   -0.11660E-02  5568   0.304E-01    0.203E-01
DAV:  14    -0.522741488593E+03    0.14102E-02   -0.51058E-03  5544   0.160E-01    0.154E-01
DAV:  15    -0.522742558707E+03   -0.10701E-02   -0.23885E-03  5536   0.101E-01    0.992E-02
DAV:  16    -0.522744105860E+03   -0.15472E-02   -0.13209E-03  5968   0.661E-02    0.541E-02
DAV:  17    -0.522746692687E+03   -0.25868E-02   -0.71284E-04  5536   0.543E-02    0.364E-02
DAV:  18    -0.522748874217E+03   -0.21815E-02   -0.22674E-04  5208   0.310E-02    0.259E-02
DAV:  19    -0.522750125098E+03   -0.12509E-02   -0.14430E-04  5168   0.207E-02    0.162E-02
DAV:  20    -0.522751470103E+03   -0.13450E-02   -0.93663E-05  4160   0.161E-02    0.109E-02
DAV:  21    -0.522752007835E+03   -0.53773E-03   -0.27130E-05  4544   0.950E-03    0.778E-03
DAV:  22    -0.522752341397E+03   -0.33356E-03   -0.78827E-06  4280   0.502E-03    0.598E-03
DAV:  23    -0.522752861714E+03   -0.52032E-03   -0.85280E-06  3792   0.496E-03    0.425E-03
DAV:  24    -0.522753181296E+03   -0.31958E-03   -0.93620E-06  3376   0.383E-03    0.406E-03
DAV:  25    -0.522753259310E+03   -0.78014E-04   -0.16972E-06  3256   0.277E-03    0.261E-03
DAV:  26    -0.522753333961E+03   -0.74651E-04   -0.18975E-06  3136   0.254E-03    0.146E-03
DAV:  27    -0.522753385627E+03   -0.51666E-04   -0.13527E-06  3048   0.214E-03    0.172E-03
DAV:  28    -0.522753401292E+03   -0.15665E-04   -0.36328E-07  2640   0.196E-03    0.117E-03
DAV:  29    -0.522753413942E+03   -0.12650E-04   -0.42225E-07  2552   0.137E-03    0.622E-04
DAV:  30    -0.522753420587E+03   -0.66449E-05   -0.28506E-07  2560   0.162E-03    0.392E-04
DAV:  31    -0.522753430278E+03   -0.96913E-05   -0.44738E-07  2744   0.116E-03    0.559E-04
DAV:  32    -0.522753431710E+03   -0.14322E-05   -0.19927E-07  2424   0.148E-03    0.399E-04
DAV:  33    -0.522753432534E+03   -0.82381E-06   -0.11935E-07  2400   0.661E-04
   1 F= -.52275343E+03 E0= -.52275343E+03  d E =-.940973E-19
