 running on   48 total cores
 distrk:  each k-point on   48 cores,    1 groups
 distr:  one band on   12 cores,    4 groups
 using from now: INCAR     
 vasp.5.4.4.18Apr17-6-g9f103f2a35 (build Mar 16 2023 09:39:13) complex          
  
 POSCAR found type information on POSCAR  Ca Si O 
 POSCAR found :  3 types and     135 ions
 scaLAPACK is switched off
 LDA part: xc-table for Pade appr. of Perdew
 generate k-points for:    2    2    2
 POSCAR, INCAR and KPOINTS ok, starting setup
 FFT: planning ...
 WAVECAR not read
 entering main loop
       N       E                     dE             d eps       ncg     rms          rms(c)
DAV:   1     0.935727254465E+04    0.93573E+04   -0.47198E+05  8320   0.178E+03
DAV:   2    -0.341855542890E+02   -0.93915E+04   -0.91123E+04  9960   0.471E+02
DAV:   3    -0.104030301617E+04   -0.10061E+04   -0.10001E+04 10240   0.158E+02
DAV:   4    -0.108969253677E+04   -0.49390E+02   -0.49225E+02 11224   0.317E+01
DAV:   5    -0.109539784767E+04   -0.57053E+01   -0.57025E+01 14960   0.753E+00    0.849E+01
DAV:   6    -0.943879795323E+03    0.15152E+03   -0.74188E+02 10272   0.410E+01    0.357E+01
DAV:   7    -0.946220950694E+03   -0.23412E+01   -0.70702E+01 11248   0.130E+01    0.182E+01
DAV:   8    -0.944937663147E+03    0.12833E+01   -0.12191E+01 10376   0.603E+00    0.714E+00
DAV:   9    -0.944580048651E+03    0.35761E+00   -0.26278E+00 10632   0.324E+00    0.226E+00
DAV:  10    -0.944694756880E+03   -0.11471E+00   -0.12802E+00 11936   0.190E+00    0.138E+00
DAV:  11    -0.944702415855E+03   -0.76590E-02   -0.19689E-01 11312   0.828E-01    0.741E-01
DAV:  12    -0.944714673296E+03   -0.12257E-01   -0.61185E-02  9792   0.449E-01    0.310E-01
DAV:  13    -0.944718329894E+03   -0.36566E-02   -0.14676E-02 11592   0.306E-01    0.181E-01
DAV:  14    -0.944718796111E+03   -0.46622E-03   -0.94855E-03 11240   0.169E-01    0.106E-01
DAV:  15    -0.944718861481E+03   -0.65370E-04   -0.12389E-03 10776   0.578E-02    0.661E-02
DAV:  16    -0.944718867148E+03   -0.56669E-05   -0.49789E-04 10248   0.571E-02    0.261E-02
DAV:  17    -0.944718880576E+03   -0.13428E-04   -0.28047E-04 12280   0.292E-02    0.198E-02
DAV:  18    -0.944718880082E+03    0.49334E-06   -0.57791E-05 10200   0.115E-02    0.116E-02
DAV:  19    -0.944718879712E+03    0.37046E-06   -0.89656E-06  9456   0.658E-03
   1 F= -.94471888E+03 E0= -.94471888E+03  d E =-.889448E-11
