 running on   52 total cores
 distrk:  each k-point on   52 cores,    1 groups
 distr:  one band on   13 cores,    4 groups
 using from now: INCAR     
 vasp.5.4.4.18Apr17-6-g9f103f2a35 (build Oct 31 2019 15:01:46) complex          
  
 POSCAR found type information on POSCAR  Sc F  C 
 POSCAR found :  3 types and      80 ions
 scaLAPACK is switched off
 LDA part: xc-table for Pade appr. of Perdew
 generate k-points for:    3    3    1
 POSCAR, INCAR and KPOINTS ok, starting setup
 FFT: planning ...
 WAVECAR not read
 entering main loop
       N       E                     dE             d eps       ncg     rms          rms(c)
DAV:   1     0.137047804490E+05    0.13705E+05   -0.27861E+05  4256   0.156E+03
DAV:   2     0.252120994824E+04   -0.11184E+05   -0.10877E+05  4632   0.534E+02
DAV:   3    -0.374831046849E+03   -0.28960E+04   -0.27803E+04  6800   0.295E+02
DAV:   4    -0.739030761110E+03   -0.36420E+03   -0.35994E+03  6072   0.140E+02
DAV:   5    -0.753692660469E+03   -0.14662E+02   -0.14602E+02  6080   0.354E+01    0.770E+01
DAV:   6    -0.597892115215E+03    0.15580E+03   -0.84176E+02  5768   0.644E+01    0.252E+01
DAV:   7    -0.597828716006E+03    0.63399E-01   -0.54262E+01  5944   0.215E+01    0.165E+01
DAV:   8    -0.596237581678E+03    0.15911E+01   -0.10504E+01  5456   0.837E+00    0.458E+00
DAV:   9    -0.595723846215E+03    0.51374E+00   -0.25926E+00  5528   0.518E+00    0.221E+00
DAV:  10    -0.595683421235E+03    0.40425E-01   -0.29169E-01  5936   0.165E+00    0.123E+00
DAV:  11    -0.595558619636E+03    0.12480E+00   -0.16513E-01  5536   0.111E+00    0.812E-01
DAV:  12    -0.595527229340E+03    0.31390E-01   -0.51619E-02  5928   0.580E-01    0.341E-01
DAV:  13    -0.595518348331E+03    0.88810E-02   -0.32249E-02  5672   0.427E-01    0.309E-01
DAV:  14    -0.595514865966E+03    0.34824E-02   -0.13159E-02  5696   0.271E-01    0.150E-01
DAV:  15    -0.595520563270E+03   -0.56973E-02   -0.86012E-03  5800   0.189E-01    0.103E-01
DAV:  16    -0.595524311530E+03   -0.37483E-02   -0.19977E-03  5624   0.123E-01    0.840E-02
DAV:  17    -0.595530119322E+03   -0.58078E-02   -0.22063E-03  5808   0.985E-02    0.858E-02
DAV:  18    -0.595533005839E+03   -0.28865E-02   -0.78567E-04  5328   0.758E-02    0.461E-02
DAV:  19    -0.595534856290E+03   -0.18505E-02   -0.42316E-04  5624   0.471E-02    0.228E-02
DAV:  20    -0.595537765725E+03   -0.29094E-02   -0.12713E-04  5320   0.232E-02    0.245E-02
DAV:  21    -0.595540220192E+03   -0.24545E-02   -0.13990E-04  4384   0.209E-02    0.121E-02
DAV:  22    -0.595541293928E+03   -0.10737E-02   -0.10771E-04  4808   0.163E-02    0.119E-02
DAV:  23    -0.595541751008E+03   -0.45708E-03   -0.24465E-05  4800   0.133E-02    0.452E-03
DAV:  24    -0.595542052827E+03   -0.30182E-03   -0.12213E-05  4664   0.619E-03    0.378E-03
DAV:  25    -0.595542271299E+03   -0.21847E-03   -0.82271E-06  4184   0.546E-03    0.227E-03
DAV:  26    -0.595542366323E+03   -0.95024E-04   -0.20399E-06  3152   0.290E-03    0.215E-03
DAV:  27    -0.595542397408E+03   -0.31085E-04   -0.56094E-07  2664   0.256E-03    0.120E-03
DAV:  28    -0.595542420401E+03   -0.22993E-04   -0.90080E-07  2776   0.250E-03    0.856E-04
DAV:  29    -0.595542430388E+03   -0.99870E-05   -0.68940E-07  2648   0.263E-03    0.126E-03
DAV:  30    -0.595542436451E+03   -0.60626E-05   -0.37701E-07  2616   0.173E-03    0.102E-03
DAV:  31    -0.595542437697E+03   -0.12464E-05   -0.18613E-07  2520   0.139E-03    0.716E-04
DAV:  32    -0.595542438537E+03   -0.84004E-06   -0.14698E-07  2520   0.983E-04
   1 F= -.59554244E+03 E0= -.59554244E+03  d E =-.317845E-16
