 running on   52 total cores
 distrk:  each k-point on   52 cores,    1 groups
 distr:  one band on   13 cores,    4 groups
 using from now: INCAR     
 vasp.5.4.4.18Apr17-6-g9f103f2a35 (build Oct 31 2019 15:01:46) complex          
  
 POSCAR found type information on POSCAR  Sc F  C 
 POSCAR found :  3 types and      80 ions
 scaLAPACK is switched off
 LDA part: xc-table for Pade appr. of Perdew
 generate k-points for:    3    3    1
 POSCAR, INCAR and KPOINTS ok, starting setup
 FFT: planning ...
 WAVECAR not read
 entering main loop
       N       E                     dE             d eps       ncg     rms          rms(c)
DAV:   1     0.136594445914E+05    0.13659E+05   -0.27886E+05  4264   0.156E+03
DAV:   2     0.248297454919E+04   -0.11176E+05   -0.10879E+05  4656   0.533E+02
DAV:   3    -0.384898473648E+03   -0.28679E+04   -0.27538E+04  6792   0.295E+02
DAV:   4    -0.740142525546E+03   -0.35524E+03   -0.35091E+03  6072   0.138E+02
DAV:   5    -0.754468787946E+03   -0.14326E+02   -0.14270E+02  6080   0.351E+01    0.766E+01
DAV:   6    -0.598781337257E+03    0.15569E+03   -0.84044E+02  5752   0.644E+01    0.250E+01
DAV:   7    -0.598845369464E+03   -0.64032E-01   -0.53629E+01  5920   0.213E+01    0.162E+01
DAV:   8    -0.597310078170E+03    0.15353E+01   -0.10466E+01  5528   0.776E+00    0.452E+00
DAV:   9    -0.596785490248E+03    0.52459E+00   -0.28692E+00  5552   0.502E+00    0.216E+00
DAV:  10    -0.596747390929E+03    0.38099E-01   -0.26034E-01  5864   0.168E+00    0.116E+00
DAV:  11    -0.596623910672E+03    0.12348E+00   -0.15973E-01  5536   0.977E-01    0.771E-01
DAV:  12    -0.596599553868E+03    0.24357E-01   -0.46854E-02  5784   0.594E-01    0.325E-01
DAV:  13    -0.596589819141E+03    0.97347E-02   -0.40523E-02  5664   0.470E-01    0.326E-01
DAV:  14    -0.596586772160E+03    0.30470E-02   -0.11084E-02  5944   0.259E-01    0.159E-01
DAV:  15    -0.596593128934E+03   -0.63568E-02   -0.12127E-02  5608   0.220E-01    0.140E-01
DAV:  16    -0.596596138977E+03   -0.30100E-02   -0.22268E-03  5360   0.165E-01    0.931E-02
DAV:  17    -0.596601183009E+03   -0.50440E-02   -0.37940E-03  5760   0.128E-01    0.117E-01
DAV:  18    -0.596604577655E+03   -0.33946E-02   -0.11034E-03  5496   0.946E-02    0.599E-02
DAV:  19    -0.596605972872E+03   -0.13952E-02   -0.62970E-04  5936   0.549E-02    0.203E-02
DAV:  20    -0.596608617244E+03   -0.26444E-02   -0.13811E-04  5416   0.258E-02    0.220E-02
DAV:  21    -0.596611189957E+03   -0.25727E-02   -0.11113E-04  4920   0.179E-02    0.143E-02
DAV:  22    -0.596612558692E+03   -0.13687E-02   -0.11440E-04  4488   0.165E-02    0.737E-03
DAV:  23    -0.596613049168E+03   -0.49048E-03   -0.19793E-05  4664   0.104E-02    0.590E-03
DAV:  24    -0.596613372414E+03   -0.32325E-03   -0.12423E-05  4336   0.590E-03    0.259E-03
DAV:  25    -0.596613605983E+03   -0.23357E-03   -0.71627E-06  4120   0.407E-03    0.162E-03
DAV:  26    -0.596613672212E+03   -0.66230E-04   -0.12190E-06  2968   0.238E-03    0.136E-03
DAV:  27    -0.596613703554E+03   -0.31341E-04   -0.43851E-07  2672   0.198E-03    0.970E-04
DAV:  28    -0.596613727177E+03   -0.23624E-04   -0.68121E-07  2928   0.178E-03    0.632E-04
DAV:  29    -0.596613733954E+03   -0.67770E-05   -0.35152E-07  2616   0.183E-03    0.698E-04
DAV:  30    -0.596613737895E+03   -0.39404E-05   -0.25552E-07  2568   0.128E-03    0.719E-04
DAV:  31    -0.596613739452E+03   -0.15573E-05   -0.14800E-07  2536   0.120E-03    0.641E-04
DAV:  32    -0.596613740731E+03   -0.12787E-05   -0.10580E-07  2568   0.870E-04    0.520E-04
DAV:  33    -0.596613741160E+03   -0.42949E-06   -0.74848E-08  2496   0.815E-04
   1 F= -.59661374E+03 E0= -.59661374E+03  d E =-.504343E-19
