 vasp.5.4.4.18Apr17-6-g9f103f2a35 (build Mar 16 2023 09:39:13) complex          
  
 executed on             LinuxIFC date 2024.04.30  12:49:10
 running on   48 total cores
 distrk:  each k-point on   48 cores,    1 groups
 distr:  one band on NCORES_PER_BAND=  12 cores,    4 groups


--------------------------------------------------------------------------------------------------------


 INCAR:
 POTCAR:    PAW_PBE Ca_sv 06Sep2000               
 POTCAR:    PAW_PBE Si 05Jan2001                  
 POTCAR:    PAW_PBE O 08Apr2002                   
 POTCAR:    PAW_PBE Ca_sv 06Sep2000               
   SHA256 =  a47365830e737f14e0e6c5cf1ed81b94e081eecf0a33df105380881bc9da05d5 Ca
   COPYR  = (c) Copyright 06Sep2000 Georg Kresse                                
   COPYR  = This file is part of the software VASP. Any use, copying, and all ot
   COPYR  = If you do not have a valid VASP license, you may not use, copy or di
   VRHFIN =Ca: 3s3p4s                                                           
   LEXCH  = PE                                                                  
   EATOM  =  1006.0909 eV,   73.9456 Ry                                         
                                                                                
   TITEL  = PAW_PBE Ca_sv 06Sep2000                                             
   LULTRA =        F    use ultrasoft PP ?                                      
   IUNSCR =        1    unscreen: 0-lin 1-nonlin 2-no                           
   RPACOR =    2.000    partial core radius                                     
   POMASS =   40.078; ZVAL   =   10.000    mass and valenz                      
   RCORE  =    2.300    outmost cutoff radius                                   
   RWIGS  =    2.500; RWIGS  =    1.323    wigner-seitz radius (au A)           
   ENMAX  =  266.622; ENMIN  =  199.967 eV                                      
   RCLOC  =    1.808    cutoff for local pot                                    
   LCOR   =        T    correct aug charges                                     
   LPAW   =        T    paw PP                                                  
   EAUG   =  420.852                                                            
   RMAX   =    2.359    core radius for proj-oper                               
   RAUG   =    1.300    factor for augmentation sphere                          
   RDEP   =    2.392    radius for radial grids                                 
   RDEPT  =    1.987    core radius for aug-charge                              
                                                                                
   Atomic configuration                                                         
    7 entries                                                                   
     n  l   j            E        occ.                                          
     1  0  0.50     -3949.1705   2.0000                                         
     2  0  0.50      -414.3434   2.0000                                         
     2  1  1.50      -334.7047   6.0000                                         
     3  0  0.50       -47.0896   2.0000                                         
     4  0  0.50        -3.7663   2.0000                                         
     3  1  1.50       -28.0061   6.0000                                         
     3  2  1.50        -4.0817   0.0000                                         
   Description                                                                  
     l       E           TYP  RCUT    TYP  RCUT                                 
     0    -47.0896403     23  2.300                                             
     0     -3.7663320     23  2.300                                             
     1    -28.0060855     23  2.300                                             
     1      6.8029130     23  2.300                                             
     2     -4.0817478     23  2.300                                             
     2      0.4464412     23  2.300                                             
  local pseudopotential read in
  partial core-charges read in
  partial kinetic energy density read in
  atomic valenz-charges read in
  non local Contribution for L=           0  read in
    real space projection operators read in
  non local Contribution for L=           0  read in
    real space projection operators read in
  non local Contribution for L=           1  read in
    real space projection operators read in
  non local Contribution for L=           1  read in
    real space projection operators read in
  non local Contribution for L=           2  read in
    real space projection operators read in
  non local Contribution for L=           2  read in
    real space projection operators read in
    PAW grid and wavefunctions read in
 
   number of l-projection  operators is LMAX  =           6
   number of lm-projection operators is LMMAX =          18
 
 POTCAR:    PAW_PBE Si 05Jan2001                  
   SHA256 =  79d9987ad8750f624c4d6acb2a16d13abf6a777132adc04dc6c8399be72b42bb Si
   COPYR  = (c) Copyright 05Jan2001 Georg Kresse                                
   COPYR  = This file is part of the software VASP. Any use, copying, and all ot
   COPYR  = If you do not have a valid VASP license, you may not use, copy or di
   VRHFIN =Si: s2p2                                                             
   LEXCH  = PE                                                                  
   EATOM  =   103.0669 eV,    7.5752 Ry                                         
                                                                                
   TITEL  = PAW_PBE Si 05Jan2001                                                
   LULTRA =        F    use ultrasoft PP ?                                      
   IUNSCR =        1    unscreen: 0-lin 1-nonlin 2-no                           
   RPACOR =    1.500    partial core radius                                     
   POMASS =   28.085; ZVAL   =    4.000    mass and valenz                      
   RCORE  =    1.900    outmost cutoff radius                                   
   RWIGS  =    2.480; RWIGS  =    1.312    wigner-seitz radius (au A)           
   ENMAX  =  245.345; ENMIN  =  184.009 eV                                      
   ICORE  =        2    local potential                                         
   LCOR   =        T    correct aug charges                                     
   LPAW   =        T    paw PP                                                  
   EAUG   =  322.069                                                            
   DEXC   =    0.000                                                            
   RMAX   =    1.950    core radius for proj-oper                               
   RAUG   =    1.300    factor for augmentation sphere                          
   RDEP   =    1.993    radius for radial grids                                 
   RDEPT  =    1.837    core radius for aug-charge                              
                                                                                
   Atomic configuration                                                         
    6 entries                                                                   
     n  l   j            E        occ.                                          
     1  0  0.50     -1785.8828   2.0000                                         
     2  0  0.50      -139.4969   2.0000                                         
     2  1  1.50       -95.5546   6.0000                                         
     3  0  0.50       -10.8127   2.0000                                         
     3  1  0.50        -4.0811   2.0000                                         
     3  2  1.50        -4.0817   0.0000                                         
   Description                                                                  
     l       E           TYP  RCUT    TYP  RCUT                                 
     0    -10.8127223     23  1.900                                             
     0     -7.6451159     23  1.900                                             
     1     -4.0811372     23  1.900                                             
     1      2.4879257     23  1.900                                             
     2     -4.0817478      7  1.900                                             
  local pseudopotential read in
  partial core-charges read in
  partial kinetic energy density read in
  atomic valenz-charges read in
  non local Contribution for L=           0  read in
    real space projection operators read in
  non local Contribution for L=           0  read in
    real space projection operators read in
  non local Contribution for L=           1  read in
    real space projection operators read in
  non local Contribution for L=           1  read in
    real space projection operators read in
    PAW grid and wavefunctions read in
 
   number of l-projection  operators is LMAX  =           4
   number of lm-projection operators is LMMAX =           8
 
 POTCAR:    PAW_PBE O 08Apr2002                   
   SHA256 =  818f92134a0a090dccd8ba1447fa70422a3b330e708bb4f08108d8ae51209ddf O/
   COPYR  = (c) Copyright 08Apr2002 Georg Kresse                                
   COPYR  = This file is part of the software VASP. Any use, copying, and all ot
   COPYR  = If you do not have a valid VASP license, you may not use, copy or di
   VRHFIN =O: s2p4                                                              
   LEXCH  = PE                                                                  
   EATOM  =   432.3788 eV,   31.7789 Ry                                         
                                                                                
   TITEL  = PAW_PBE O 08Apr2002                                                 
   LULTRA =        F    use ultrasoft PP ?                                      
   IUNSCR =        1    unscreen: 0-lin 1-nonlin 2-no                           
   RPACOR =    1.200    partial core radius                                     
   POMASS =   16.000; ZVAL   =    6.000    mass and valenz                      
   RCORE  =    1.520    outmost cutoff radius                                   
   RWIGS  =    1.550; RWIGS  =    0.820    wigner-seitz radius (au A)           
   ENMAX  =  400.000; ENMIN  =  300.000 eV                                      
   ICORE  =        2    local potential                                         
   LCOR   =        T    correct aug charges                                     
   LPAW   =        T    paw PP                                                  
   EAUG   =  605.392                                                            
   DEXC   =    0.000                                                            
   RMAX   =    1.553    core radius for proj-oper                               
   RAUG   =    1.300    factor for augmentation sphere                          
   RDEP   =    1.550    radius for radial grids                                 
   RDEPT  =    1.329    core radius for aug-charge                              
                                                                                
   Atomic configuration                                                         
    4 entries                                                                   
     n  l   j            E        occ.                                          
     1  0  0.50      -514.6923   2.0000                                         
     2  0  0.50       -23.9615   2.0000                                         
     2  1  0.50        -9.0305   4.0000                                         
     3  2  1.50        -9.5241   0.0000                                         
   Description                                                                  
     l       E           TYP  RCUT    TYP  RCUT                                 
     0    -23.9615318     23  1.200                                             
     0     -9.5240782     23  1.200                                             
     1     -9.0304911     23  1.520                                             
     1      8.1634956     23  1.520                                             
     2     -9.5240782      7  1.500                                             
  local pseudopotential read in
  partial core-charges read in
  partial kinetic energy density read in
  kinetic energy density of atom read in
  atomic valenz-charges read in
  non local Contribution for L=           0  read in
    real space projection operators read in
  non local Contribution for L=           0  read in
    real space projection operators read in
  non local Contribution for L=           1  read in
    real space projection operators read in
  non local Contribution for L=           1  read in
    real space projection operators read in
    PAW grid and wavefunctions read in
 
   number of l-projection  operators is LMAX  =           4
   number of lm-projection operators is LMMAX =           8
 
 Optimization of the real space projectors (new method)

 maximal supplied QI-value         = 16.25
 optimisation between [QCUT,QGAM] = [ 12.51, 25.03] = [ 43.85,175.40] Ry 
 Optimized for a Real-space Cutoff    1.47 Angstroem

   l    n(q)    QCUT    max X(q) W(low)/X(q) W(high)/X(q)  e(spline) 
   0     11    12.514    11.817    0.25E-04    0.32E-05    0.87E-07
   0     11    12.514     8.461    0.39E-04    0.59E-05    0.18E-06
   1     11    12.514     3.957    0.97E-05    0.57E-05    0.28E-07
   1     11    12.514     4.314    0.42E-04    0.14E-04    0.23E-06
   2     10    12.514    14.565    0.79E-04    0.50E-03    0.16E-05
   2     10    12.514    14.552    0.75E-04    0.48E-03    0.15E-05
 Optimization of the real space projectors (new method)

 maximal supplied QI-value         = 19.84
 optimisation between [QCUT,QGAM] = [ 12.50, 25.00] = [ 43.76,175.03] Ry 
 Optimized for a Real-space Cutoff    1.16 Angstroem

   l    n(q)    QCUT    max X(q) W(low)/X(q) W(high)/X(q)  e(spline) 
   0      9    12.501   159.560    0.10E-03    0.83E-04    0.71E-07
   0      9    12.501   115.863    0.99E-04    0.81E-04    0.70E-07
   1      8    12.501    88.339    0.20E-03    0.25E-03    0.76E-07
   1      8    12.501    48.592    0.20E-03    0.24E-03    0.75E-07
 Optimization of the real space projectors (new method)

 maximal supplied QI-value         = 24.76
 optimisation between [QCUT,QGAM] = [ 12.38, 25.00] = [ 42.90,175.06] Ry 
 Optimized for a Real-space Cutoff    1.16 Angstroem

   l    n(q)    QCUT    max X(q) W(low)/X(q) W(high)/X(q)  e(spline) 
   0      9    12.378    20.381    0.16E-03    0.67E-05    0.31E-06
   0      9    12.378    15.268    0.17E-03    0.81E-05    0.33E-06
   1      8    12.378     5.964    0.20E-03    0.16E-03    0.30E-06
   1      8    12.378     5.382    0.18E-03    0.14E-03    0.26E-06
  PAW_PBE Ca_sv 06Sep2000               :
 energy of atom  1       EATOM=-1006.0909
 kinetic energy error for atom=    0.0012 (will be added to EATOM!!)
  PAW_PBE Si 05Jan2001                  :
 energy of atom  2       EATOM= -103.0669
 kinetic energy error for atom=    0.0003 (will be added to EATOM!!)
  PAW_PBE O 08Apr2002                   :
 energy of atom  3       EATOM= -432.3788
 kinetic energy error for atom=    0.0168 (will be added to EATOM!!)
 
 
 POSCAR: Ca Si  O                                
  positions in direct lattice
  No initial velocities read in
 exchange correlation table for  LEXCH =        8
   RHO(1)=    0.500       N(1)  =     2000
   RHO(2)=  100.500       N(2)  =     4000
 


--------------------------------------------------------------------------------------------------------


 ion  position               nearest neighbor table
   1  0.562  0.581  0.245-  81 1.94 124 2.30 111 2.31  87 2.54  34 2.91  40 3.08
   2  0.840  0.019  0.856-  63 2.09  85 2.14  77 2.29  36 2.95  49 3.11
   3  0.664  0.576  0.003-  57 2.30  81 2.35 127 2.35 100 2.54
   4  0.614  0.142  0.044- 123 2.34 119 2.42  90 2.45
   5  0.974  0.268  0.138- 132 2.07  45 3.04
   6  0.502  0.085  0.775-  86 2.28  94 2.31 119 2.41  56 2.48  30 2.91
   7  0.471  0.370  0.857- 119 2.17 128 2.30  30 2.96
   8  0.380  0.052  0.270- 130 2.12  99 2.37  92 2.40  50 3.01
   9  0.900  0.075  0.434-  64 2.02 121 2.03  66 2.34  61 2.37  14 3.12
  10  0.443  0.919  0.949-  56 2.24 123 2.30  86 2.31 120 2.35
  11  0.522  0.405  0.411- 113 2.08 124 2.26 125 2.50  87 2.52  32 2.86
  12  0.826  0.507  0.264- 132 2.32  87 2.44 115 2.47  71 2.47  42 2.54
  13  0.326  0.676  0.539- 101 1.99  70 2.29 134 2.33  29 3.05
  14  0.881  0.936  0.237-  55 2.24 133 2.24 121 2.37 104 2.38   9 3.12
  15  0.154  0.961  0.458-  64 2.44  59 2.51
  16  0.710  0.255  0.562- 113 2.04  61 2.15  97 2.41
  17  0.076  0.651  0.340-  75 2.26  83 2.27  71 2.36
  18  0.023  0.267  0.755- 118 2.17  63 2.45  39 3.06
  19  0.091  0.032  0.041- 106 2.18 129 2.24  55 2.36 108 2.40 135 2.55  45 2.80  41 2.94
  20  0.984  0.478  0.908-  98 2.24  69 2.32  93 2.42  31 3.13
  21  0.991  0.728  0.063- 126 2.13 108 2.21 115 2.53  41 3.15  38 3.16
  22  0.535  0.629  0.748- 122 2.10 127 2.20  67 2.34 102 2.43 134 2.46  52 3.16
  23  0.219  0.639  0.893-  95 2.31  72 2.36 102 2.37 126 2.45  44 2.63
  24  0.633  0.788  0.424-  88 2.00  73 2.09
  25  0.329  0.364  0.156-  92 2.40  82 2.42 124 2.51  34 3.10
  26  0.096  0.229  0.495-  59 2.10  66 2.16  79 2.32
  27  0.704  0.006  0.612-  77 2.11  89 2.20  94 2.36  37 3.11
  28  0.881  0.440  0.553-  97 1.61 110 1.61 107 1.68  58 1.76  32 2.97
  29  0.351  0.854  0.694- 134 1.66  86 1.67  76 1.69 105 1.92  13 3.05
  30  0.657  0.243  0.816- 103 1.60 119 1.70 117 1.73  94 1.74   6 2.91   7 2.96  31 3.01
  31  0.797  0.340  0.975-  93 1.58  57 1.74 103 1.84  90 1.96  30 3.01  20 3.13
  32  0.662  0.508  0.548- 116 1.48  67 1.55 113 1.70 107 1.98  11 2.86  52 2.87  28 2.97
  33  0.741  0.796  0.790- 122 1.50  60 1.62  77 1.74  62 1.76  37 2.64
  34  0.339  0.572  0.275-  65 1.57 111 1.66 124 1.70 101 1.78   1 2.91  35 2.95  25 3.10
  35  0.357  0.753  0.136- 120 1.55 131 1.65 111 1.72 114 1.82  34 2.95  41 3.07
  36  0.716  0.912  0.015-  85 1.57 123 1.60 104 1.68  62 1.78   2 2.95
  37  0.860  0.823  0.626-  80 1.61  60 1.73  73 1.86  89 1.87  48 2.34  33 2.64  27 3.11
  38  0.117  0.530  0.132- 126 1.62  82 1.66  71 1.77  65 1.93  72 2.48  21 3.16
  39  0.207  0.202  0.888- 118 1.52  68 1.52  91 1.81 129 1.83  51 2.61  18 3.06
  40  0.738  0.730  0.184-  81 1.58  88 1.59 115 1.61 104 1.83   1 3.08
  41  0.153  0.865  0.182-  75 1.60 108 1.60 114 1.64 135 1.72  19 2.94  35 3.07  21 3.15
  42  0.740  0.332  0.238-  84 1.53  87 1.56 132 1.62  90 1.92  12 2.54
  43  0.342  0.171  0.510- 109 1.63  96 1.65  59 1.72 125 1.82  50 3.01  46 3.09
  44  0.386  0.565  0.981-  72 1.57 102 1.63 100 1.67 131 1.76  23 2.63
  45  0.096  0.099  0.246-  55 1.59 112 1.61  64 1.74 135 2.03  19 2.80   5 3.04
  46  0.279  0.321  0.685- 128 1.55  79 1.63  68 1.79 109 1.85  43 3.09
  47  0.099  0.518  0.640-  70 1.53  69 1.61  58 1.67
  48  0.898  0.794  0.452-  83 1.63  80 1.65 121 1.67  73 2.08  37 2.34
  49  0.985  0.032  0.664-  63 1.56  66 1.58  78 1.72  89 1.77   2 3.11
  50  0.422  0.955  0.477-  99 1.52  74 1.56  96 1.77  76 2.03   8 3.01  43 3.01
  51  0.342  0.145  0.028-  92 1.55 129 1.58  56 1.64  91 2.03  39 2.61
  52  0.729  0.480  0.758-  98 1.61 127 1.69  67 1.85 117 1.88  97 2.10  32 2.87  22 3.16
  53  0.115  0.866  0.824- 106 1.65 105 1.67  78 1.73  95 1.75
  54  0.656  0.117  0.337- 130 1.66 133 1.73  84 1.73  61 1.77
  55  0.993  0.060  0.192-  45 1.59  14 2.24  19 2.36
  56  0.429  0.091  0.952-  51 1.64  10 2.24   6 2.48
  57  0.805  0.469  0.013-  31 1.74   3 2.30
  58  0.988  0.522  0.575-  47 1.67  28 1.76
  59  0.226  0.142  0.451-  43 1.72  26 2.10  15 2.51
  60  0.842  0.747  0.734-  33 1.62  37 1.73
  61  0.725  0.128  0.455-  54 1.77  16 2.15   9 2.37
  62  0.761  0.821  0.923-  33 1.76  36 1.78
  63  0.940  0.096  0.756-  49 1.56   2 2.09  18 2.45
  64  0.040  0.082  0.367-  45 1.74   9 2.02  15 2.44
  65  0.238  0.535  0.219-  34 1.57  38 1.93
  66  0.015  0.104  0.570-  49 1.58  26 2.16   9 2.34
  67  0.675  0.562  0.654-  32 1.55  52 1.85  22 2.34
  68  0.234  0.227  0.776-  39 1.52  46 1.79
  69  0.086  0.486  0.760-  47 1.61  20 2.32
  70  0.180  0.593  0.596-  47 1.53  13 2.29
  71  0.005  0.547  0.208-  38 1.77  17 2.36  12 2.47
  72  0.279  0.531  0.028-  44 1.57  23 2.36  38 2.48
  73  0.757  0.801  0.528-  37 1.86  48 2.08  24 2.09
  74  0.522  0.917  0.533-  50 1.56
  75  0.139  0.807  0.290-  41 1.60  17 2.26
  76  0.316  0.893  0.574-  29 1.69  50 2.03
  77  0.736  0.924  0.749-  33 1.74  27 2.11   2 2.29
  78  0.058  0.944  0.731-  49 1.72  53 1.73
  79  0.169  0.331  0.624-  46 1.63  26 2.32
  80  0.956  0.775  0.564-  37 1.61  48 1.65
  81  0.634  0.675  0.153-  40 1.58   1 1.94   3 2.35
  82  0.150  0.407  0.124-  38 1.66  25 2.42
  83  0.910  0.703  0.366-  48 1.63  17 2.27
  84  0.705  0.236  0.299-  42 1.53  54 1.73
  85  0.798  0.001  0.015-  36 1.57   2 2.14
  86  0.417  0.932  0.773-  29 1.67   6 2.28  10 2.31
  87  0.662  0.415  0.275-  42 1.56  12 2.44  11 2.52   1 2.54
  88  0.706  0.729  0.302-  40 1.59  24 2.00
  89  0.868  0.968  0.633-  49 1.77  37 1.87  27 2.20
  90  0.729  0.284  0.098-  42 1.92  31 1.96   4 2.45
  91  0.303  0.278  0.956-  39 1.81  51 2.03
  92  0.367  0.183  0.139-  51 1.55  25 2.40   8 2.40
  93  0.909  0.309  0.941-  31 1.58  20 2.42
  94  0.669  0.135  0.737-  30 1.74   6 2.31  27 2.36
  95  0.081  0.736  0.831-  53 1.75  23 2.31
  96  0.436  0.085  0.516-  43 1.65  50 1.77
  97  0.801  0.398  0.638-  28 1.61  52 2.10  16 2.41
  98  0.838  0.495  0.817-  52 1.61  20 2.24
  99  0.374  0.907  0.381-  50 1.52   8 2.37
 100  0.486  0.495  0.022-  44 1.67   3 2.54
 101  0.356  0.641  0.393-  34 1.78  13 1.99
 102  0.389  0.581  0.856-  44 1.63  23 2.37  22 2.43
 103  0.741  0.228  0.907-  30 1.60  31 1.84
 104  0.767  0.852  0.118-  36 1.68  40 1.83  14 2.38
 105  0.240  0.858  0.792-  53 1.67  29 1.92
 106  0.078  0.896  0.942-  53 1.65  19 2.18
 107  0.801  0.515  0.484-  28 1.68  32 1.98
 108  0.042  0.876  0.130-  41 1.60  21 2.21  19 2.40
 109  0.359  0.219  0.626-  43 1.63  46 1.85
 110  0.922  0.336  0.497-  28 1.61
 111  0.408  0.669  0.226-  34 1.66  35 1.72   1 2.31
 112  0.167  0.201  0.244-  45 1.61
 113  0.658  0.388  0.496-  32 1.70  16 2.04  11 2.08
 114  0.224  0.791  0.108-  41 1.64  35 1.82
 115  0.828  0.655  0.143-  40 1.61  12 2.47  21 2.53
 116  0.591  0.576  0.490-  32 1.48
 117  0.658  0.354  0.742-  30 1.73  52 1.88
 118  0.093  0.226  0.902-  39 1.52  18 2.17
 119  0.549  0.225  0.890-  30 1.70   7 2.17   6 2.41   4 2.42
 120  0.410  0.859  0.118-  35 1.55  10 2.35
 121  0.888  0.919  0.420-  48 1.67   9 2.03  14 2.37
 122  0.656  0.719  0.808-  33 1.50  22 2.10
 123  0.604  0.965  0.011-  36 1.60  10 2.30   4 2.34
 124  0.426  0.474  0.283-  34 1.70  11 2.26   1 2.30  25 2.51
 125  0.378  0.277  0.426-  43 1.82  11 2.50
 126  0.095  0.603  0.032-  38 1.62  21 2.13  23 2.45
 127  0.629  0.516  0.835-  52 1.69  22 2.20   3 2.35
 128  0.362  0.400  0.720-  46 1.55   7 2.30
 129  0.239  0.100  0.981-  51 1.58  39 1.83  19 2.24
 130  0.534  0.091  0.310-  54 1.66   8 2.12
 131  0.377  0.694  0.025-  35 1.65  44 1.76
 132  0.866  0.334  0.236-  42 1.62   5 2.07  12 2.32
 133  0.748  0.039  0.280-  54 1.73  14 2.24
 134  0.379  0.729  0.704-  29 1.66  13 2.33  22 2.46
 135  0.198  0.989  0.200-  41 1.72  45 2.03  19 2.55
 

IMPORTANT INFORMATION: All symmetrisations will be switched off!
NOSYMM: (Re-)initialisation of all symmetry stuff for point group C_1.

 
 

Automatic generation of k-mesh.
 generate k-points for:    2    2    2
Space group operators:
 irot       det(A)        alpha          n_x          n_y          n_z        tau_x        tau_y        tau_z
    1     1.000000     0.000000     1.000000     0.000000     0.000000     0.000000     0.000000     0.000000
 
 Subroutine IBZKPT returns following result:
 ===========================================
 
 Found      8 irreducible k-points:
 
 Following reciprocal coordinates:
            Coordinates               Weight
  0.000000  0.000000  0.000000      1.000000
  0.500000  0.000000  0.000000      1.000000
  0.000000  0.500000  0.000000      1.000000
  0.500000  0.500000  0.000000      1.000000
  0.000000  0.000000  0.500000      1.000000
  0.500000  0.000000  0.500000      1.000000
  0.000000  0.500000  0.500000      1.000000
  0.500000  0.500000  0.500000      1.000000
 
 Following cartesian coordinates:
            Coordinates               Weight
  0.000000  0.000000  0.000000      1.000000
  0.038669  0.000000  0.000000      1.000000
  0.000000  0.038669  0.000000      1.000000
  0.038669  0.038669  0.000000      1.000000
  0.000000  0.000000  0.038669      1.000000
  0.038669  0.000000  0.038669      1.000000
  0.000000  0.038669  0.038669      1.000000
  0.038669  0.038669  0.038669      1.000000
 


--------------------------------------------------------------------------------------------------------




 Dimension of arrays:
   k-points           NKPTS =      8   k-points in BZ     NKDIM =      8   number of bands    NBANDS=    520
   number of dos      NEDOS =    301   number of ions     NIONS =    135
   non local maximal  LDIM  =      6   non local SUM 2l+1 LMDIM =     18
   total plane-waves  NPLWV = ******
   max r-space proj   IRMAX =   7814   max aug-charges    IRDMAX= 222580
   dimension x,y,z NGX =   108 NGY =  108 NGZ =  108
   dimension x,y,z NGXF=   216 NGYF=  216 NGZF=  216
   support grid    NGXF=   432 NGYF=  432 NGZF=  432
   ions per type =              27  27  81
   NGX,Y,Z   is equivalent  to a cutoff of  13.89, 13.89, 13.89 a.u.
   NGXF,Y,Z  is equivalent  to a cutoff of  27.77, 27.77, 27.77 a.u.

 SYSTEM =  unknown system                          
 POSCAR =  Ca Si  O                                

 Startparameter for this run:
   NWRITE =      2    write-flag & timer
   PREC   = a         normal or accurate (medium, high low for compatibility)
   ISTART =      0    job   : 0-new  1-cont  2-samecut
   ICHARG =      2    charge: 1-file 2-atom 10-const
   ISPIN  =      1    spin polarized calculation?
   LNONCOLLINEAR =      F non collinear calculations
   LSORBIT =      F    spin-orbit coupling
   INIWAV =      1    electr: 0-lowe 1-rand  2-diag
   LASPH  =      F    aspherical Exc in radial PAW
   METAGGA=      F    non-selfconsistent MetaGGA calc.

 Electronic Relaxation 1
   ENCUT  =  600.0 eV  44.10 Ry    6.64 a.u.  25.83 25.83 25.83*2*pi/ulx,y,z
   ENINI  =  600.0     initial cutoff
   ENAUG  =  605.4 eV  augmentation charge cutoff
   NELM   =     60;   NELMIN=  2; NELMDL= -5     # of ELM steps 
   EDIFF  = 0.1E-05   stopping-criterion for ELM
   LREAL  =      T    real-space projection
   NLSPLINE    = F    spline interpolate recip. space projectors
   LCOMPAT=      F    compatible to vasp.4.4
   GGA_COMPAT  = T    GGA compatible to vasp.4.4-vasp.4.6
   LMAXPAW     = -100 max onsite density
   LMAXMIX     =    2 max onsite mixed and CHGCAR
   VOSKOWN=      0    Vosko Wilk Nusair interpolation
   ROPT   =   -0.00025  -0.00025  -0.00025
 Ionic relaxation
   EDIFFG = -.1E-01   stopping-criterion for IOM
   NSW    =      1    number of steps for IOM
   NBLOCK =      1;   KBLOCK =      1    inner block; outer block 
   IBRION =     -1    ionic relax: 0-MD 1-quasi-New 2-CG
   NFREE  =      0    steps in history (QN), initial steepest desc. (CG)
   ISIF   =      2    stress and relaxation
   IWAVPR =     10    prediction:  0-non 1-charg 2-wave 3-comb
   ISYM   =      0    0-nonsym 1-usesym 2-fastsym
   LCORR  =      T    Harris-Foulkes like correction to forces

   POTIM  = 1.0000    time-step for ionic-motion
   TEIN   =    0.0    initial temperature
   TEBEG  =    0.0;   TEEND  =   0.0 temperature during run
   SMASS  =  -3.00    Nose mass-parameter (am)
   estimated Nose-frequenzy (Omega)   =  0.10E-29 period in steps =****** mass=  -0.382E-26a.u.
   SCALEE = 1.0000    scale energy and forces
   NPACO  =    256;   APACO  = 16.0  distance and # of slots for P.C.
   PSTRESS=    0.0 pullay stress

  Mass of Ions in am
   POMASS =  40.08 28.09 16.00
  Ionic Valenz
   ZVAL   =  10.00  4.00  6.00
  Atomic Wigner-Seitz radii
   RWIGS  =  -1.00 -1.00 -1.00
  virtual crystal weights 
   VCA    =   1.00  1.00  1.00
   NELECT =     864.0000    total number of electrons
   NUPDOWN=      -1.0000    fix difference up-down

 DOS related values:
   EMIN   =  10.00;   EMAX   =-10.00  energy-range for DOS
   EFERMI =   0.00
   ISMEAR =     0;   SIGMA  =   0.05  broadening in eV -4-tet -1-fermi 0-gaus

 Electronic relaxation 2 (details)
   IALGO  =     38    algorithm
   LDIAG  =      T    sub-space diagonalisation (order eigenvalues)
   LSUBROT=      F    optimize rotation matrix (better conditioning)
   TURBO    =      0    0=normal 1=particle mesh
   IRESTART =      0    0=no restart 2=restart with 2 vectors
   NREBOOT  =      0    no. of reboots
   NMIN     =      0    reboot dimension
   EREF     =   0.00    reference energy to select bands
   IMIX   =      4    mixing-type and parameters
     AMIX     =   0.40;   BMIX     =  1.00
     AMIX_MAG =   1.60;   BMIX_MAG =  1.00
     AMIN     =   0.10
     WC   =   100.;   INIMIX=   1;  MIXPRE=   1;  MAXMIX= -45

 Intra band minimization:
   WEIMIN = 0.0000     energy-eigenvalue tresh-hold
   EBREAK =  0.48E-09  absolut break condition
   DEPER  =   0.30     relativ break condition  

   TIME   =   0.40     timestep for ELM

  volume/ion in A,a.u.               =      16.01       108.07
  Fermi-wavevector in a.u.,A,eV,Ry     =   1.205870  2.278763 19.784524  1.454122
  Thomas-Fermi vector in A             =   2.341553
 
 Write flags
   LWAVE        =      F    write WAVECAR
   LDOWNSAMPLE  =      F    k-point downsampling of WAVECAR
   LCHARG       =      F    write CHGCAR
   LVTOT        =      F    write LOCPOT, total local potential
   LVHAR        =      F    write LOCPOT, Hartree potential only
   LELF         =      F    write electronic localiz. function (ELF)
   LORBIT       =      0    0 simple, 1 ext, 2 COOP (PROOUT), +10 PAW based schemes


 Dipole corrections
   LMONO  =      F    monopole corrections only (constant potential shift)
   LDIPOL =      F    correct potential (dipole corrections)
   IDIPOL =      0    1-x, 2-y, 3-z, 4-all directions 
   EPSILON=  1.0000000 bulk dielectric constant

 Exchange correlation treatment:
   GGA     =    --    GGA type
   LEXCH   =     8    internal setting for exchange type
   VOSKOWN=      0    Vosko Wilk Nusair interpolation
   LHFCALC =     F    Hartree Fock is set to
   LHFONE  =     F    Hartree Fock one center treatment
   AEXX    =    0.0000 exact exchange contribution

 Linear response parameters
   LEPSILON=     F    determine dielectric tensor
   LRPA    =     F    only Hartree local field effects (RPA)
   LNABLA  =     F    use nabla operator in PAW spheres
   LVEL    =     F    velocity operator in full k-point grid
   LINTERFAST=   F  fast interpolation
   KINTER  =     0    interpolate to denser k-point grid
   CSHIFT  =0.1000    complex shift for real part using Kramers Kronig
   OMEGAMAX=  -1.0    maximum frequency
   DEG_THRESHOLD= 0.2000000E-02 threshold for treating states as degnerate
   RTIME   =   -0.100 relaxation time in fs
  (WPLASMAI=    0.000 imaginary part of plasma frequency in eV, 0.658/RTIME)
   DFIELD  = 0.0000000 0.0000000 0.0000000 field for delta impulse in time
 
 Orbital magnetization related:
   ORBITALMAG=     F  switch on orbital magnetization
   LCHIMAG   =     F  perturbation theory with respect to B field
   DQ        =  0.001000  dq finite difference perturbation B field
   LLRAUG    =     F  two centre corrections for induced B field



--------------------------------------------------------------------------------------------------------


 Static calculation
 charge density and potential will be updated during run
 non-spin polarized calculation
 Variant of blocked Davidson
 Davidson routine will perform the subspace rotation
 perform sub-space diagonalisation
    after iterative eigenvector-optimisation
 modified Broyden-mixing scheme, WC =      100.0
 initial mixing is a Kerker type mixing with AMIX =  0.4000 and BMIX =      1.0000
 Hartree-type preconditioning will be used
 using additional bands           88
 real space projection scheme for non local part
 use partial core corrections
 calculate Harris-corrections to forces 
   (improved forces if not selfconsistent)
 use gradient corrections 
 use of overlap-Matrix (Vanderbilt PP)
 Gauss-broadening in eV      SIGMA  =   0.05


--------------------------------------------------------------------------------------------------------


  energy-cutoff  :      600.00
  volume of cell :     2161.91
      direct lattice vectors                 reciprocal lattice vectors
    12.930412990  0.000000000  0.000000000     0.077337050  0.000000000  0.000000000
     0.000000000 12.930412990  0.000000000     0.000000000  0.077337050  0.000000000
     0.000000000  0.000000000 12.930412990     0.000000000  0.000000000  0.077337050

  length of vectors
    12.930412990 12.930412990 12.930412990     0.077337050  0.077337050  0.077337050


 
 k-points in units of 2pi/SCALE and weight: read from INCAR                         
   0.00000000  0.00000000  0.00000000       0.125
   0.03866853  0.00000000  0.00000000       0.125
   0.00000000  0.03866853  0.00000000       0.125
   0.03866853  0.03866853  0.00000000       0.125
   0.00000000  0.00000000  0.03866853       0.125
   0.03866853  0.00000000  0.03866853       0.125
   0.00000000  0.03866853  0.03866853       0.125
   0.03866853  0.03866853  0.03866853       0.125
 
 k-points in reciprocal lattice and weights: read from INCAR                         
   0.00000000  0.00000000  0.00000000       0.125
   0.50000000  0.00000000  0.00000000       0.125
   0.00000000  0.50000000  0.00000000       0.125
   0.50000000  0.50000000  0.00000000       0.125
   0.00000000  0.00000000  0.50000000       0.125
   0.50000000  0.00000000  0.50000000       0.125
   0.00000000  0.50000000  0.50000000       0.125
   0.50000000  0.50000000  0.50000000       0.125
 
 position of ions in fractional coordinates (direct lattice) 
   0.56229802  0.58148595  0.24465977
   0.84005494  0.01888002  0.85608400
   0.66364583  0.57647306  0.00286502
   0.61442668  0.14209009  0.04430016
   0.97373968  0.26816817  0.13767705
   0.50240666  0.08543552  0.77479479
   0.47140269  0.37001356  0.85701497
   0.37970742  0.05176895  0.26950209
   0.89951308  0.07469995  0.43372760
   0.44312861  0.91881590  0.94949350
   0.52219426  0.40471785  0.41084797
   0.82629212  0.50678571  0.26426861
   0.32551988  0.67648447  0.53948473
   0.88110412  0.93582667  0.23719599
   0.15422669  0.96143581  0.45780926
   0.71015246  0.25458370  0.56154368
   0.07587203  0.65147834  0.34033442
   0.02288384  0.26712941  0.75545265
   0.09077672  0.03186131  0.04053330
   0.98404683  0.47750664  0.90791007
   0.99076877  0.72774836  0.06303021
   0.53496118  0.62881882  0.74820547
   0.21850131  0.63945400  0.89312640
   0.63278200  0.78840307  0.42431473
   0.32858785  0.36378502  0.15633609
   0.09573905  0.22899823  0.49506881
   0.70371265  0.00617470  0.61210296
   0.88116025  0.43985564  0.55274498
   0.35114980  0.85355296  0.69371037
   0.65747409  0.24296954  0.81648135
   0.79656349  0.34026347  0.97537378
   0.66166094  0.50822343  0.54831558
   0.74137947  0.79607808  0.79012831
   0.33921812  0.57217160  0.27488141
   0.35675602  0.75257027  0.13587934
   0.71570558  0.91210289  0.01523861
   0.85972434  0.82316375  0.62585145
   0.11720721  0.53039950  0.13181088
   0.20721377  0.20213462  0.88825036
   0.73820846  0.73044891  0.18389552
   0.15306033  0.86502673  0.18218929
   0.74040637  0.33160468  0.23835554
   0.34151182  0.17063574  0.51027520
   0.38573869  0.56458576  0.98147884
   0.09586926  0.09918667  0.24601568
   0.27889208  0.32110235  0.68521818
   0.09875339  0.51832731  0.64042102
   0.89781618  0.79395755  0.45160172
   0.98479545  0.03201339  0.66438068
   0.42236420  0.95475724  0.47662450
   0.34196638  0.14497867  0.02776519
   0.72879634  0.48027742  0.75810359
   0.11462789  0.86621752  0.82397262
   0.65647622  0.11740527  0.33708134
   0.99269204  0.05991619  0.19214095
   0.42898848  0.09129934  0.95218764
   0.80507879  0.46938244  0.01316937
   0.98797589  0.52176727  0.57453479
   0.22581028  0.14211776  0.45127673
   0.84222991  0.74682797  0.73433366
   0.72507956  0.12829339  0.45461273
   0.76107713  0.82134484  0.92275477
   0.94016616  0.09649964  0.75591008
   0.04037813  0.08202700  0.36713367
   0.23813701  0.53525490  0.21926171
   0.01464359  0.10408170  0.57004468
   0.67457425  0.56236200  0.65409275
   0.23363734  0.22688409  0.77609086
   0.08551300  0.48640460  0.76010999
   0.17968011  0.59262465  0.59557821
   0.00478442  0.54734101  0.20834352
   0.27851606  0.53125751  0.02777887
   0.75662055  0.80138760  0.52795240
   0.52231452  0.91708991  0.53251288
   0.13886191  0.80650837  0.28997663
   0.31579717  0.89282875  0.57393126
   0.73556441  0.92430039  0.74945276
   0.05805758  0.94367673  0.73091126
   0.16921037  0.33081937  0.62353734
   0.95599386  0.77493354  0.56351981
   0.63385508  0.67547850  0.15258441
   0.14963570  0.40670966  0.12420646
   0.90994836  0.70306026  0.36567073
   0.70452157  0.23610516  0.29863237
   0.79821049  0.00108655  0.01538505
   0.41671993  0.93173545  0.77347810
   0.66192615  0.41523555  0.27548318
   0.70631429  0.72900563  0.30231186
   0.86801133  0.96760154  0.63259807
   0.72865759  0.28363723  0.09834284
   0.30268966  0.27848975  0.95567144
   0.36707466  0.18327416  0.13892073
   0.90945689  0.30908567  0.94066097
   0.66945309  0.13531027  0.73690248
   0.08139956  0.73559529  0.83127907
   0.43572892  0.08506562  0.51578538
   0.80108424  0.39786023  0.63834532
   0.83764189  0.49473555  0.81674758
   0.37361146  0.90671026  0.38140460
   0.48646287  0.49456917  0.02151843
   0.35590738  0.64062879  0.39331023
   0.38867058  0.58094486  0.85643876
   0.74101773  0.22832968  0.90674883
   0.76745746  0.85222875  0.11842188
   0.23961925  0.85797188  0.79175886
   0.07791205  0.89577956  0.94215197
   0.80070106  0.51456623  0.48371203
   0.04174049  0.87635115  0.12996230
   0.35924076  0.21935867  0.62555506
   0.92185002  0.33600399  0.49681939
   0.40757152  0.66944279  0.22602805
   0.16722825  0.20076997  0.24363340
   0.65763568  0.38792855  0.49601264
   0.22409119  0.79089110  0.10794883
   0.82816027  0.65494145  0.14319970
   0.59115717  0.57645181  0.49007905
   0.65803614  0.35391845  0.74228734
   0.09313823  0.22584754  0.90220672
   0.54932907  0.22469427  0.88960228
   0.40950687  0.85887131  0.11794090
   0.88793724  0.91897911  0.41987442
   0.65637466  0.71867647  0.80827171
   0.60374067  0.96457422  0.01084888
   0.42620662  0.47399051  0.28269353
   0.37818114  0.27653891  0.42550507
   0.09472913  0.60329319  0.03207082
   0.62883539  0.51635865  0.83465424
   0.36198334  0.40043053  0.72004258
   0.23881615  0.09985762  0.98100306
   0.53389784  0.09096754  0.30990414
   0.37702891  0.69371593  0.02466538
   0.86578427  0.33384022  0.23599484
   0.74848447  0.03941970  0.27977532
   0.37923683  0.72897205  0.70365400
   0.19760828  0.98903939  0.20045148
 
 position of ions in cartesian coordinates  (Angst):
   7.27074560  7.51885353  3.16355186
  10.86225736  0.24412646 11.06951968
   8.58121472  7.45403480  0.03704588
   7.94479073  1.83728355  0.57281941
  12.59085624  3.46752518  1.78022112
   6.49632564  1.10471653 10.01841665
   6.09543143  4.78442820 11.08155745
   4.90977376  0.66939396  3.48477329
  11.63107559  0.96590121  5.60827703
   5.72983592 11.88066900 12.27734304
   6.75218746  5.23316900  5.31243391
  10.68429842  6.55294852  3.41710221
   4.20910653  8.74722360  6.97576038
  11.39304017 12.10062532  3.06704217
   1.99421485 12.43176213  5.91966280
   9.18256456  3.29187236  7.26099163
   0.98105665  8.42388405  4.40066464
   0.29589748  3.45409357  9.76831481
   1.17378044  0.41197985  0.52411234
  12.72413191  6.17435811 11.73965215
  12.81104933  9.41008689  0.81500660
   6.91726902  8.13088702  9.67460570
   2.82531213  8.26840428 11.54849323
   8.18213258 10.19437736  5.48656473
   4.24877656  4.70389049  2.02149026
   1.23794549  2.96104174  6.40144411
   9.09929524  0.07984139  7.91474405
  11.39376591  5.68751511  7.14722082
   4.54051194 11.03679222  8.96996159
   8.50141145  3.14169644 10.55744101
  10.29989490  4.39974713 12.61198585
   8.55554917  6.57153880  7.08994688
   9.58634269 10.29361832 10.21668537
   4.38623033  7.39841504  3.55433014
   4.61300264  9.73104440  1.75697598
   9.25436873 11.79386701  0.19704150
  11.11659075 10.64384729  8.09251768
   1.51553761  6.85828463  1.70436907
   2.67935959  2.61368406 11.48544402
   9.54534030  9.44500608  2.37784499
   1.97913334 11.18515285  2.35578278
   9.57376013  4.28778541  3.08203560
   4.41588887  2.20639060  6.59806904
   4.98776060  7.30032700 12.69092671
   1.23962918  1.28252467  3.18108432
   3.60618982  4.15198604  8.86015402
   1.27692214  6.70218624  8.28090833
  11.60913405 10.26619901  5.83939672
  12.73381194  0.41394639  8.59071658
   5.46134357 12.34540544  6.16295159
   4.42176648  1.87463405  0.35901531
   9.42363760  6.21018538  9.80259252
   1.48218597 11.20055029 10.65430626
   8.48850863  1.51809861  4.35860098
  12.83591801  0.77474105  2.48446188
   5.54699820  1.18053820 12.31217943
  10.41000122  6.06930875  0.17028540
  12.77493628  6.74666627  7.42897208
   2.91982021  1.83764133  5.83519450
  10.89038052  9.65679411  9.49523750
   9.37557812  1.65888647  5.87833034
   9.84104162 10.62032798 11.93160021
  12.15673669  1.24778019  9.77422956
   0.52210584  1.06064301  4.74718995
   3.07920986  6.92106694  2.83514440
   0.18934766  1.34581934  7.37091311
   8.72252368  7.27157296  8.45768938
   3.02102725  2.93370493 10.03517532
   1.10571836  6.28941239  9.82853614
   2.32333797  7.66288144  7.70107221
   0.06186453  7.07734535  2.69396775
   3.60132764  6.86937897  0.35919225
   9.78341623 10.36227258  6.82664256
   6.75374239 11.85835123  6.88561142
   1.79554187 10.42848628  3.74951752
   4.08338786 11.54464450  7.42116826
   9.51115155 11.95158582  9.69073374
   0.75070847 12.20212979  9.45098440
   2.18795993  4.27763114  8.06259530
  12.36139549 10.02021076  7.28654391
   8.19600792  8.73421602  1.97297948
   1.93485138  5.25892389  1.60604083
  11.76600806  9.09085953  4.72827359
   9.10975491  3.05293728  3.86143986
  10.32119126  0.01404956  0.19893505
   5.38836082 12.04772414 10.00139128
   8.55897849  5.36916714  3.56211127
   9.13293549  9.42634382  3.90901715
  11.22374500 12.51148753  8.17975432
   9.42184359  3.66754650  1.27161350
   3.91390235  3.60098747 12.35722646
   4.74642697  2.36981064  1.79630238
  11.75965321  3.99660541 12.16313480
   8.65630488  1.74961763  9.52845340
   1.05252994  9.51155087 10.74878173
   5.63415487  1.09993354  6.66931796
  10.35835012  5.14449709  8.25406860
  10.83105563  6.39713496 10.56088358
   4.83095044 11.72413810  4.93171900
   6.29016579  6.39498358  0.27824224
   4.60202937  8.28359482  5.08566377
   5.02567118  7.51185698 11.07410686
   9.58166526  2.95239704 11.72463687
   9.92354196 11.01966974  1.53124384
   3.09837584 11.09393079 10.23776904
   1.00743494 11.58279970 12.18241406
  10.35339537  6.65355392  6.25459632
   0.53972172 11.33158234  1.68046616
   4.64513140  2.83639819  8.08868523
  11.91990150  4.34467037  6.42407984
   5.27006809  8.65617171  2.92263598
   2.16233035  2.59603864  3.15028049
   8.50350092  5.01607637  6.41364824
   2.89759166 10.22654857  1.39582301
  10.70845433  8.46866343  1.85163126
   7.64390639  7.45375995  6.33692448
   8.50867910  4.57631177  9.59808185
   1.20431572  2.92030191 11.66590551
   7.10305169  2.90538974 11.50292487
   5.29509301 11.10556075  1.52502460
  11.48139526 11.88277938  5.42914960
   8.48719546  9.29278358 10.45128696
   7.80661623 12.47234307  0.14028048
   5.51102767  6.12889304  3.65534404
   4.89003838  3.57576237  5.50195625
   1.22488683  7.80083016  0.41468890
   8.13110134  6.67673060 10.79242401
   4.68059411  5.17773209  9.31044798
   3.08799143  1.29120030 12.68477471
   6.90351951  1.17624786  4.00718857
   4.87513946  8.97003347  0.31893352
  11.19494818  4.31669194  3.05151079
   9.67821334  0.50971294  3.61761048
   4.90368886  9.42590967  9.09853687
   2.55515663 12.78868783  2.59192039
 


--------------------------------------------------------------------------------------------------------


 k-point  1 :   0.0000 0.0000 0.0000  plane waves:   72359
 k-point  2 :   0.5000 0.0000 0.0000  plane waves:   72020
 k-point  3 :   0.0000 0.5000 0.0000  plane waves:   72020
 k-point  4 :   0.5000 0.5000 0.0000  plane waves:   72184
 k-point  5 :   0.0000 0.0000 0.5000  plane waves:   72020
 k-point  6 :   0.5000 0.0000 0.5000  plane waves:   72184
 k-point  7 :   0.0000 0.5000 0.5000  plane waves:   72184
 k-point  8 :   0.5000 0.5000 0.5000  plane waves:   72264

 maximum and minimum number of plane-waves per node :      6071     5950

 maximum number of plane-waves:     72359
 maximum index in each direction: 
   IXMAX=   25   IYMAX=   25   IZMAX=   25
   IXMIN=  -26   IYMIN=  -26   IZMIN=  -26


 real space projection operators:
  total allocation   :      53611.88 KBytes
  max/ min on nodes  :       4544.95       4362.72


 parallel 3D FFT for wavefunctions:
    minimum data exchange during FFTs selected (reduces bandwidth)
 parallel 3D FFT for charge:
    minimum data exchange during FFTs selected (reduces bandwidth)


 total amount of memory used by VASP MPI-rank0   209568. kBytes
=======================================================================

   base      :      30000. kBytes
   nonlr-proj:      23333. kBytes
   fftplans  :      34299. kBytes
   grid      :      19248. kBytes
   one-center:        186. kBytes
   wavefun   :     102502. kBytes
 
     INWAV:  cpu time    0.0000: real time    0.0003
 Broyden mixing: mesh for mixing (old mesh)
   NGX = 51   NGY = 51   NGZ = 51
  (NGX  =216   NGY  =216   NGZ  =216)
  gives a total of 132651 points

 initial charge density was supplied:
 charge density of overlapping atoms calculated
 number of electron     864.0000000 magnetization 
 keeping initial charge density in first step


--------------------------------------------------------------------------------------------------------


 Maximum index for non-local projection operator          704
 Maximum index for augmentation-charges         5073 (set IRDMAX)


--------------------------------------------------------------------------------------------------------


 First call to EWALD:  gamma=   0.137
 Maximum number of real-space cells 3x 3x 3
 Maximum number of reciprocal cells 3x 3x 3

    FEWALD:  cpu time    0.0054: real time    0.0055


--------------------------------------- Iteration      1(   1)  ---------------------------------------


    POTLOK:  cpu time    0.1699: real time    0.1775
    SETDIJ:  cpu time    0.3523: real time    0.3527
     EDDAV:  cpu time   52.9841: real time   53.2876
       DOS:  cpu time    0.0021: real time    0.0021
    --------------------------------------------
      LOOP:  cpu time   53.5085: real time   53.8200

 eigenvalue-minimisations  :  8320
 total energy-change (2. order) : 0.9326594E+04  (-0.4675545E+05)
 number of electron     864.0000000 magnetization 
 augmentation part      864.0000000 magnetization 

 Free energy of the ion-electron system (eV)
  ---------------------------------------------------
  alpha Z        PSCENC =      2210.34415451
  Ewald energy   TEWEN  =    -39616.04482680
  -Hartree energ DENC   =    -21819.97433621
  -exchange      EXHF   =         0.00000000
  -V(xc)+E(xc)   XCENC  =      3139.92801084
  PAW double counting   =     50594.51003143   -49994.65612350
  entropy T*S    EENTRO =        -0.04412156
  eigenvalues    EBANDS =      -156.00892538
  atomic energy  EATOM  =     64968.54023382
  Solvation  Ediel_sol  =         0.00000000
  ---------------------------------------------------
  free energy    TOTEN  =      9326.59409716 eV

  energy without entropy =     9326.63821872  energy(sigma->0) =     9326.61615794


--------------------------------------------------------------------------------------------------------




--------------------------------------- Iteration      1(   2)  ---------------------------------------


     EDDAV:  cpu time   62.2109: real time   62.2949
       DOS:  cpu time    0.0010: real time    0.0010
    --------------------------------------------
      LOOP:  cpu time   62.2118: real time   62.2959

 eigenvalue-minimisations  : 10112
 total energy-change (2. order) :-0.9356007E+04  (-0.9080486E+04)
 number of electron     864.0000000 magnetization 
 augmentation part      864.0000000 magnetization 

 Free energy of the ion-electron system (eV)
  ---------------------------------------------------
  alpha Z        PSCENC =      2210.34415451
  Ewald energy   TEWEN  =    -39616.04482680
  -Hartree energ DENC   =    -21819.97433621
  -exchange      EXHF   =         0.00000000
  -V(xc)+E(xc)   XCENC  =      3139.92801084
  PAW double counting   =     50594.51003143   -49994.65612350
  entropy T*S    EENTRO =        -0.00000000
  eigenvalues    EBANDS =     -9512.06015380
  atomic energy  EATOM  =     64968.54023382
  Solvation  Ediel_sol  =         0.00000000
  ---------------------------------------------------
  free energy    TOTEN  =       -29.41300971 eV

  energy without entropy =      -29.41300971  energy(sigma->0) =      -29.41300971


--------------------------------------------------------------------------------------------------------




--------------------------------------- Iteration      1(   3)  ---------------------------------------


     EDDAV:  cpu time   62.9104: real time   63.0821
       DOS:  cpu time    0.0010: real time    0.0010
    --------------------------------------------
      LOOP:  cpu time   62.9114: real time   63.0831

 eigenvalue-minimisations  : 10248
 total energy-change (2. order) :-0.1014216E+04  (-0.1008530E+04)
 number of electron     864.0000000 magnetization 
 augmentation part      864.0000000 magnetization 

 Free energy of the ion-electron system (eV)
  ---------------------------------------------------
  alpha Z        PSCENC =      2210.34415451
  Ewald energy   TEWEN  =    -39616.04482680
  -Hartree energ DENC   =    -21819.97433621
  -exchange      EXHF   =         0.00000000
  -V(xc)+E(xc)   XCENC  =      3139.92801084
  PAW double counting   =     50594.51003143   -49994.65612350
  entropy T*S    EENTRO =        -0.00000000
  eigenvalues    EBANDS =    -10526.27578724
  atomic energy  EATOM  =     64968.54023382
  Solvation  Ediel_sol  =         0.00000000
  ---------------------------------------------------
  free energy    TOTEN  =     -1043.62864314 eV

  energy without entropy =    -1043.62864314  energy(sigma->0) =    -1043.62864314


--------------------------------------------------------------------------------------------------------




--------------------------------------- Iteration      1(   4)  ---------------------------------------


     EDDAV:  cpu time   65.8658: real time   65.9666
       DOS:  cpu time    0.0010: real time    0.0010
    --------------------------------------------
      LOOP:  cpu time   65.8668: real time   65.9676

 eigenvalue-minimisations  : 10848
 total energy-change (2. order) :-0.4811175E+02  (-0.4793509E+02)
 number of electron     864.0000000 magnetization 
 augmentation part      864.0000000 magnetization 

 Free energy of the ion-electron system (eV)
  ---------------------------------------------------
  alpha Z        PSCENC =      2210.34415451
  Ewald energy   TEWEN  =    -39616.04482680
  -Hartree energ DENC   =    -21819.97433621
  -exchange      EXHF   =         0.00000000
  -V(xc)+E(xc)   XCENC  =      3139.92801084
  PAW double counting   =     50594.51003143   -49994.65612350
  entropy T*S    EENTRO =        -0.00000000
  eigenvalues    EBANDS =    -10574.38753515
  atomic energy  EATOM  =     64968.54023382
  Solvation  Ediel_sol  =         0.00000000
  ---------------------------------------------------
  free energy    TOTEN  =     -1091.74039106 eV

  energy without entropy =    -1091.74039106  energy(sigma->0) =    -1091.74039106


--------------------------------------------------------------------------------------------------------




--------------------------------------- Iteration      1(   5)  ---------------------------------------


     EDDAV:  cpu time   87.3516: real time   87.4639
       DOS:  cpu time    0.0012: real time    0.0012
    CHARGE:  cpu time    2.4342: real time    2.4393
    MIXING:  cpu time    0.0084: real time    0.0087
    --------------------------------------------
      LOOP:  cpu time   89.7954: real time   89.9132

 eigenvalue-minimisations  : 15344
 total energy-change (2. order) :-0.6154011E+01  (-0.6151003E+01)
 number of electron     864.0000008 magnetization 
 augmentation part      134.2377895 magnetization 

 Broyden mixing:
  rms(total) = 0.85769E+01    rms(broyden)= 0.85760E+01
  rms(prec ) = 0.10044E+02
  weight for this iteration     100.00

 Free energy of the ion-electron system (eV)
  ---------------------------------------------------
  alpha Z        PSCENC =      2210.34415451
  Ewald energy   TEWEN  =    -39616.04482680
  -Hartree energ DENC   =    -21819.97433621
  -exchange      EXHF   =         0.00000000
  -V(xc)+E(xc)   XCENC  =      3139.92801084
  PAW double counting   =     50594.51003143   -49994.65612350
  entropy T*S    EENTRO =        -0.00000000
  eigenvalues    EBANDS =    -10580.54154588
  atomic energy  EATOM  =     64968.54023382
  Solvation  Ediel_sol  =         0.00000000
  ---------------------------------------------------
  free energy    TOTEN  =     -1097.89440178 eV

  energy without entropy =    -1097.89440178  energy(sigma->0) =    -1097.89440178


--------------------------------------------------------------------------------------------------------




--------------------------------------- Iteration      1(   6)  ---------------------------------------


    POTLOK:  cpu time    0.1677: real time    0.1754
    SETDIJ:  cpu time    0.3502: real time    0.3504
     EDDAV:  cpu time   64.1710: real time   64.2535
       DOS:  cpu time    0.0011: real time    0.0011
    CHARGE:  cpu time    2.5681: real time    2.5750
    MIXING:  cpu time    0.0084: real time    0.0085
    --------------------------------------------
      LOOP:  cpu time   67.2665: real time   67.3639

 eigenvalue-minimisations  : 10528
 total energy-change (2. order) : 0.1588209E+03  (-0.7740803E+02)
 number of electron     864.0000007 magnetization 
 augmentation part      119.8538667 magnetization 

 Broyden mixing:
  rms(total) = 0.36318E+01    rms(broyden)= 0.36302E+01
  rms(prec ) = 0.38384E+01
  weight for this iteration     100.00

 eigenvalues of (default mixing * dielectric matrix)
  average eigenvalue GAMMA=   0.9846
  0.9846

 Free energy of the ion-electron system (eV)
  ---------------------------------------------------
  alpha Z        PSCENC =      2210.34415451
  Ewald energy   TEWEN  =    -39616.04482680
  -Hartree energ DENC   =    -23364.72737023
  -exchange      EXHF   =         0.00000000
  -V(xc)+E(xc)   XCENC  =      3239.26938240
  PAW double counting   =     65002.68569759   -64548.54406688
  entropy T*S    EENTRO =        -0.00000000
  eigenvalues    EBANDS =     -8830.59673280
  atomic energy  EATOM  =     64968.54023382
  Solvation  Ediel_sol  =         0.00000000
  ---------------------------------------------------
  free energy    TOTEN  =      -939.07352838 eV

  energy without entropy =     -939.07352838  energy(sigma->0) =     -939.07352838


--------------------------------------------------------------------------------------------------------




--------------------------------------- Iteration      1(   7)  ---------------------------------------


    POTLOK:  cpu time    0.1646: real time    0.1755
    SETDIJ:  cpu time    0.3439: real time    0.3521
     EDDAV:  cpu time   67.9857: real time   68.1465
       DOS:  cpu time    0.0010: real time    0.0010
    CHARGE:  cpu time    2.4435: real time    2.4449
    MIXING:  cpu time    0.0074: real time    0.0074
    --------------------------------------------
      LOOP:  cpu time   70.9462: real time   71.1273

 eigenvalue-minimisations  : 11416
 total energy-change (2. order) :-0.2214573E+01  (-0.7610641E+01)
 number of electron     864.0000007 magnetization 
 augmentation part      119.0319409 magnetization 

 Broyden mixing:
  rms(total) = 0.18576E+01    rms(broyden)= 0.18575E+01
  rms(prec ) = 0.20243E+01
  weight for this iteration     100.00

 eigenvalues of (default mixing * dielectric matrix)
  average eigenvalue GAMMA=   1.2257
  1.2257  1.2257

 Free energy of the ion-electron system (eV)
  ---------------------------------------------------
  alpha Z        PSCENC =      2210.34415451
  Ewald energy   TEWEN  =    -39616.04482680
  -Hartree energ DENC   =    -23446.61258415
  -exchange      EXHF   =         0.00000000
  -V(xc)+E(xc)   XCENC  =      3241.89353162
  PAW double counting   =     76740.27598184   -76342.01829951
  entropy T*S    EENTRO =        -0.00000000
  eigenvalues    EBANDS =     -8697.66629321
  atomic energy  EATOM  =     64968.54023382
  Solvation  Ediel_sol  =         0.00000000
  ---------------------------------------------------
  free energy    TOTEN  =      -941.28810187 eV

  energy without entropy =     -941.28810187  energy(sigma->0) =     -941.28810187


--------------------------------------------------------------------------------------------------------




--------------------------------------- Iteration      1(   8)  ---------------------------------------


    POTLOK:  cpu time    0.1652: real time    0.1728
    SETDIJ:  cpu time    0.3504: real time    0.3505
     EDDAV:  cpu time   61.7424: real time   61.9597
       DOS:  cpu time    0.0011: real time    0.0011
    CHARGE:  cpu time    2.3899: real time    2.4459
    MIXING:  cpu time    0.0084: real time    0.0084
    --------------------------------------------
      LOOP:  cpu time   64.6575: real time   64.9385

 eigenvalue-minimisations  : 10088
 total energy-change (2. order) : 0.1455492E+01  (-0.1234885E+01)
 number of electron     864.0000007 magnetization 
 augmentation part      119.6596466 magnetization 

 Broyden mixing:
  rms(total) = 0.75344E+00    rms(broyden)= 0.75330E+00
  rms(prec ) = 0.87875E+00
  weight for this iteration     100.00

 eigenvalues of (default mixing * dielectric matrix)
  average eigenvalue GAMMA=   1.3574
  2.1807  0.9457  0.9457

 Free energy of the ion-electron system (eV)
  ---------------------------------------------------
  alpha Z        PSCENC =      2210.34415451
  Ewald energy   TEWEN  =    -39616.04482680
  -Hartree energ DENC   =    -23461.35391679
  -exchange      EXHF   =         0.00000000
  -V(xc)+E(xc)   XCENC  =      3240.47906077
  PAW double counting   =     84199.64180862   -83843.73176110
  entropy T*S    EENTRO =        -0.00000000
  eigenvalues    EBANDS =     -8637.70736315
  atomic energy  EATOM  =     64968.54023382
  Solvation  Ediel_sol  =         0.00000000
  ---------------------------------------------------
  free energy    TOTEN  =      -939.83261011 eV

  energy without entropy =     -939.83261011  energy(sigma->0) =     -939.83261011


--------------------------------------------------------------------------------------------------------




--------------------------------------- Iteration      1(   9)  ---------------------------------------


    POTLOK:  cpu time    0.1757: real time    0.1820
    SETDIJ:  cpu time    0.3505: real time    0.3506
     EDDAV:  cpu time   62.8614: real time   63.0479
       DOS:  cpu time    0.0011: real time    0.0011
    CHARGE:  cpu time    2.4405: real time    2.4419
    MIXING:  cpu time    0.0094: real time    0.0094
    --------------------------------------------
      LOOP:  cpu time   65.8387: real time   66.0329

 eigenvalue-minimisations  : 10344
 total energy-change (2. order) : 0.3401135E+00  (-0.2880436E+00)
 number of electron     864.0000007 magnetization 
 augmentation part      118.9075479 magnetization 

 Broyden mixing:
  rms(total) = 0.21641E+00    rms(broyden)= 0.21638E+00
  rms(prec ) = 0.26630E+00
  weight for this iteration     100.00

 eigenvalues of (default mixing * dielectric matrix)
  average eigenvalue GAMMA=   1.3643
  2.3676  1.2322  0.9288  0.9288

 Free energy of the ion-electron system (eV)
  ---------------------------------------------------
  alpha Z        PSCENC =      2210.34415451
  Ewald energy   TEWEN  =    -39616.04482680
  -Hartree energ DENC   =    -23582.22897624
  -exchange      EXHF   =         0.00000000
  -V(xc)+E(xc)   XCENC  =      3247.19826712
  PAW double counting   =     90222.18730268   -89893.96719079
  entropy T*S    EENTRO =        -0.00000000
  eigenvalues    EBANDS =     -8495.52146096
  atomic energy  EATOM  =     64968.54023382
  Solvation  Ediel_sol  =         0.00000000
  ---------------------------------------------------
  free energy    TOTEN  =      -939.49249665 eV

  energy without entropy =     -939.49249665  energy(sigma->0) =     -939.49249665


--------------------------------------------------------------------------------------------------------




--------------------------------------- Iteration      1(  10)  ---------------------------------------


    POTLOK:  cpu time    0.1662: real time    0.1765
    SETDIJ:  cpu time    0.3503: real time    0.3503
     EDDAV:  cpu time   79.4439: real time   80.2063
       DOS:  cpu time    0.0011: real time    0.0011
    CHARGE:  cpu time    2.4543: real time    2.4980
    MIXING:  cpu time    0.0082: real time    0.0084
    --------------------------------------------
      LOOP:  cpu time   82.4239: real time   83.2406

 eigenvalue-minimisations  : 11968
 total energy-change (2. order) :-0.1569002E+00  (-0.1284817E+00)
 number of electron     864.0000007 magnetization 
 augmentation part      118.7666374 magnetization 

 Broyden mixing:
  rms(total) = 0.13971E+00    rms(broyden)= 0.13966E+00
  rms(prec ) = 0.16797E+00
  weight for this iteration     100.00

 eigenvalues of (default mixing * dielectric matrix)
  average eigenvalue GAMMA=   1.2726
  2.4648  1.1017  1.1017  0.8475  0.8475

 Free energy of the ion-electron system (eV)
  ---------------------------------------------------
  alpha Z        PSCENC =      2210.34415451
  Ewald energy   TEWEN  =    -39616.04482680
  -Hartree energ DENC   =    -23604.55592430
  -exchange      EXHF   =         0.00000000
  -V(xc)+E(xc)   XCENC  =      3248.11284136
  PAW double counting   =     91138.34913278   -90812.46356540
  entropy T*S    EENTRO =        -0.00000000
  eigenvalues    EBANDS =     -8471.93144283
  atomic energy  EATOM  =     64968.54023382
  Solvation  Ediel_sol  =         0.00000000
  ---------------------------------------------------
  free energy    TOTEN  =      -939.64939685 eV

  energy without entropy =     -939.64939685  energy(sigma->0) =     -939.64939685


--------------------------------------------------------------------------------------------------------




--------------------------------------- Iteration      1(  11)  ---------------------------------------


    POTLOK:  cpu time    0.1662: real time    0.1795
    SETDIJ:  cpu time    0.3398: real time    0.3527
     EDDAV:  cpu time   68.1470: real time   68.2402
       DOS:  cpu time    0.0010: real time    0.0010
    CHARGE:  cpu time    2.5564: real time    2.5708
    MIXING:  cpu time    0.0112: real time    0.0112
    --------------------------------------------
      LOOP:  cpu time   71.2217: real time   71.3554

 eigenvalue-minimisations  : 11448
 total energy-change (2. order) :-0.1695102E-01  (-0.1830230E-01)
 number of electron     864.0000007 magnetization 
 augmentation part      118.7091902 magnetization 

 Broyden mixing:
  rms(total) = 0.74014E-01    rms(broyden)= 0.74006E-01
  rms(prec ) = 0.91622E-01
  weight for this iteration     100.00

 eigenvalues of (default mixing * dielectric matrix)
  average eigenvalue GAMMA=   1.3540
  2.4873  1.8451  0.9838  0.9838  0.9121  0.9121

 Free energy of the ion-electron system (eV)
  ---------------------------------------------------
  alpha Z        PSCENC =      2210.34415451
  Ewald energy   TEWEN  =    -39616.04482680
  -Hartree energ DENC   =    -23617.77953661
  -exchange      EXHF   =         0.00000000
  -V(xc)+E(xc)   XCENC  =      3248.78084128
  PAW double counting   =     91249.29455945   -90922.84701104
  entropy T*S    EENTRO =        -0.00000000
  eigenvalues    EBANDS =     -8459.95476249
  atomic energy  EATOM  =     64968.54023382
  Solvation  Ediel_sol  =         0.00000000
  ---------------------------------------------------
  free energy    TOTEN  =      -939.66634787 eV

  energy without entropy =     -939.66634787  energy(sigma->0) =     -939.66634787


--------------------------------------------------------------------------------------------------------




--------------------------------------- Iteration      1(  12)  ---------------------------------------


    POTLOK:  cpu time    0.1654: real time    0.1715
    SETDIJ:  cpu time    0.3509: real time    0.3509
     EDDAV:  cpu time   60.8953: real time   60.9816
       DOS:  cpu time    0.0010: real time    0.0010
    CHARGE:  cpu time    2.4475: real time    2.4489
    MIXING:  cpu time    0.0091: real time    0.0091
    --------------------------------------------
      LOOP:  cpu time   63.8692: real time   63.9630

 eigenvalue-minimisations  :  9904
 total energy-change (2. order) :-0.2838278E-01  (-0.6475191E-02)
 number of electron     864.0000007 magnetization 
 augmentation part      118.7257649 magnetization 

 Broyden mixing:
  rms(total) = 0.28212E-01    rms(broyden)= 0.28201E-01
  rms(prec ) = 0.39729E-01
  weight for this iteration     100.00

 eigenvalues of (default mixing * dielectric matrix)
  average eigenvalue GAMMA=   1.3845
  2.5353  2.5353  0.9570  0.9689  0.9689  0.8628  0.8628

 Free energy of the ion-electron system (eV)
  ---------------------------------------------------
  alpha Z        PSCENC =      2210.34415451
  Ewald energy   TEWEN  =    -39616.04482680
  -Hartree energ DENC   =    -23624.15347308
  -exchange      EXHF   =         0.00000000
  -V(xc)+E(xc)   XCENC  =      3248.87969335
  PAW double counting   =     91092.61654215   -90763.50240596
  entropy T*S    EENTRO =        -0.00000000
  eigenvalues    EBANDS =     -8456.37464864
  atomic energy  EATOM  =     64968.54023382
  Solvation  Ediel_sol  =         0.00000000
  ---------------------------------------------------
  free energy    TOTEN  =      -939.69473065 eV

  energy without entropy =     -939.69473065  energy(sigma->0) =     -939.69473065


--------------------------------------------------------------------------------------------------------




--------------------------------------- Iteration      1(  13)  ---------------------------------------


    POTLOK:  cpu time    0.1658: real time    0.1739
    SETDIJ:  cpu time    0.3526: real time    0.3526
     EDDAV:  cpu time   69.0928: real time   69.2397
       DOS:  cpu time    0.0010: real time    0.0010
    CHARGE:  cpu time    2.5697: real time    2.5712
    MIXING:  cpu time    0.0110: real time    0.0110
    --------------------------------------------
      LOOP:  cpu time   72.1929: real time   72.3494

 eigenvalue-minimisations  : 11640
 total energy-change (2. order) :-0.7471538E-02  (-0.1544143E-02)
 number of electron     864.0000007 magnetization 
 augmentation part      118.7229539 magnetization 

 Broyden mixing:
  rms(total) = 0.18192E-01    rms(broyden)= 0.18190E-01
  rms(prec ) = 0.23714E-01
  weight for this iteration     100.00

 eigenvalues of (default mixing * dielectric matrix)
  average eigenvalue GAMMA=   1.3644
  2.8174  2.5115  0.9002  0.9002  1.0146  1.0146  0.8783  0.8783

 Free energy of the ion-electron system (eV)
  ---------------------------------------------------
  alpha Z        PSCENC =      2210.34415451
  Ewald energy   TEWEN  =    -39616.04482680
  -Hartree energ DENC   =    -23630.33753453
  -exchange      EXHF   =         0.00000000
  -V(xc)+E(xc)   XCENC  =      3249.10168932
  PAW double counting   =     90988.67753382   -90658.21637923
  entropy T*S    EENTRO =        -0.00000000
  eigenvalues    EBANDS =     -8451.76707310
  atomic energy  EATOM  =     64968.54023382
  Solvation  Ediel_sol  =         0.00000000
  ---------------------------------------------------
  free energy    TOTEN  =      -939.70220219 eV

  energy without entropy =     -939.70220219  energy(sigma->0) =     -939.70220219


--------------------------------------------------------------------------------------------------------




--------------------------------------- Iteration      1(  14)  ---------------------------------------


    POTLOK:  cpu time    0.1672: real time    0.1732
    SETDIJ:  cpu time    0.3505: real time    0.3506
     EDDAV:  cpu time   68.5015: real time   68.5839
       DOS:  cpu time    0.0011: real time    0.0011
    CHARGE:  cpu time    2.4367: real time    2.4379
    MIXING:  cpu time    0.0104: real time    0.0104
    --------------------------------------------
      LOOP:  cpu time   71.4674: real time   71.5571

 eigenvalue-minimisations  : 11520
 total energy-change (2. order) :-0.1220014E-02  (-0.7092009E-03)
 number of electron     864.0000007 magnetization 
 augmentation part      118.7191233 magnetization 

 Broyden mixing:
  rms(total) = 0.10370E-01    rms(broyden)= 0.10368E-01
  rms(prec ) = 0.13332E-01
  weight for this iteration     100.00

 eigenvalues of (default mixing * dielectric matrix)
  average eigenvalue GAMMA=   1.3213
  2.9212  2.4927  1.0979  0.9651  0.9651  0.9165  0.9165  0.8084  0.8084

 Free energy of the ion-electron system (eV)
  ---------------------------------------------------
  alpha Z        PSCENC =      2210.34415451
  Ewald energy   TEWEN  =    -39616.04482680
  -Hartree energ DENC   =    -23632.89757456
  -exchange      EXHF   =         0.00000000
  -V(xc)+E(xc)   XCENC  =      3249.20201601
  PAW double counting   =     90965.86947704   -90635.17420080
  entropy T*S    EENTRO =        -0.00000000
  eigenvalues    EBANDS =     -8449.54270143
  atomic energy  EATOM  =     64968.54023382
  Solvation  Ediel_sol  =         0.00000000
  ---------------------------------------------------
  free energy    TOTEN  =      -939.70342220 eV

  energy without entropy =     -939.70342220  energy(sigma->0) =     -939.70342220


--------------------------------------------------------------------------------------------------------




--------------------------------------- Iteration      1(  15)  ---------------------------------------


    POTLOK:  cpu time    0.1672: real time    0.1750
    SETDIJ:  cpu time    0.3507: real time    0.3511
     EDDAV:  cpu time   64.7908: real time   64.8750
       DOS:  cpu time    0.0010: real time    0.0010
    CHARGE:  cpu time    2.4635: real time    2.4648
    MIXING:  cpu time    0.0099: real time    0.0099
    --------------------------------------------
      LOOP:  cpu time   67.7831: real time   67.8769

 eigenvalue-minimisations  : 10720
 total energy-change (2. order) :-0.2172382E-03  (-0.1053070E-03)
 number of electron     864.0000007 magnetization 
 augmentation part      118.7202469 magnetization 

 Broyden mixing:
  rms(total) = 0.58737E-02    rms(broyden)= 0.58729E-02
  rms(prec ) = 0.80285E-02
  weight for this iteration     100.00

 eigenvalues of (default mixing * dielectric matrix)
  average eigenvalue GAMMA=   1.3808
  3.1036  2.3948  1.9556  0.9066  0.9066  0.9691  0.9691  0.8727  0.8651  0.8651

 Free energy of the ion-electron system (eV)
  ---------------------------------------------------
  alpha Z        PSCENC =      2210.34415451
  Ewald energy   TEWEN  =    -39616.04482680
  -Hartree energ DENC   =    -23633.69528411
  -exchange      EXHF   =         0.00000000
  -V(xc)+E(xc)   XCENC  =      3249.22818550
  PAW double counting   =     90966.15886425   -90635.48592518
  entropy T*S    EENTRO =        -0.00000000
  eigenvalues    EBANDS =     -8448.74904144
  atomic energy  EATOM  =     64968.54023382
  Solvation  Ediel_sol  =         0.00000000
  ---------------------------------------------------
  free energy    TOTEN  =      -939.70363944 eV

  energy without entropy =     -939.70363944  energy(sigma->0) =     -939.70363944


--------------------------------------------------------------------------------------------------------




--------------------------------------- Iteration      1(  16)  ---------------------------------------


    POTLOK:  cpu time    0.1710: real time    0.1776
    SETDIJ:  cpu time    0.3500: real time    0.3506
     EDDAV:  cpu time   57.8953: real time   58.0124
       DOS:  cpu time    0.0011: real time    0.0011
    CHARGE:  cpu time    2.4343: real time    2.4354
    MIXING:  cpu time    0.0102: real time    0.0102
    --------------------------------------------
      LOOP:  cpu time   60.8618: real time   60.9872

 eigenvalue-minimisations  :  9240
 total energy-change (2. order) :-0.1541692E-03  (-0.5249058E-04)
 number of electron     864.0000007 magnetization 
 augmentation part      118.7177131 magnetization 

 Broyden mixing:
  rms(total) = 0.25357E-02    rms(broyden)= 0.25347E-02
  rms(prec ) = 0.36412E-02
  weight for this iteration     100.00

 eigenvalues of (default mixing * dielectric matrix)
  average eigenvalue GAMMA=   1.4102
  3.3553  2.4566  2.4566  0.9043  0.9043  0.9571  0.9375  0.9181  0.9181  0.8522
  0.8522

 Free energy of the ion-electron system (eV)
  ---------------------------------------------------
  alpha Z        PSCENC =      2210.34415451
  Ewald energy   TEWEN  =    -39616.04482680
  -Hartree energ DENC   =    -23634.85619361
  -exchange      EXHF   =         0.00000000
  -V(xc)+E(xc)   XCENC  =      3249.26713380
  PAW double counting   =     90977.87168312   -90647.34087322
  entropy T*S    EENTRO =        -0.00000000
  eigenvalues    EBANDS =     -8447.48510523
  atomic energy  EATOM  =     64968.54023382
  Solvation  Ediel_sol  =         0.00000000
  ---------------------------------------------------
  free energy    TOTEN  =      -939.70379361 eV

  energy without entropy =     -939.70379361  energy(sigma->0) =     -939.70379361


--------------------------------------------------------------------------------------------------------




--------------------------------------- Iteration      1(  17)  ---------------------------------------


    POTLOK:  cpu time    0.1735: real time    0.1740
    SETDIJ:  cpu time    0.3503: real time    0.3508
     EDDAV:  cpu time   70.8815: real time   71.2072
       DOS:  cpu time    0.0010: real time    0.0010
    CHARGE:  cpu time    2.5011: real time    2.5101
    MIXING:  cpu time    0.0114: real time    0.0115
    --------------------------------------------
      LOOP:  cpu time   73.9188: real time   74.2547

 eigenvalue-minimisations  : 11984
 total energy-change (2. order) :-0.2501909E-04  (-0.2820227E-04)
 number of electron     864.0000007 magnetization 
 augmentation part      118.7187571 magnetization 

 Broyden mixing:
  rms(total) = 0.22038E-02    rms(broyden)= 0.22032E-02
  rms(prec ) = 0.26499E-02
  weight for this iteration     100.00

 eigenvalues of (default mixing * dielectric matrix)
  average eigenvalue GAMMA=   1.3730
  3.5068  2.4205  2.4205  0.9940  0.9940  0.9596  0.9596  0.9281  0.9281  0.8495
  0.8495  0.6657

 Free energy of the ion-electron system (eV)
  ---------------------------------------------------
  alpha Z        PSCENC =      2210.34415451
  Ewald energy   TEWEN  =    -39616.04482680
  -Hartree energ DENC   =    -23634.97443831
  -exchange      EXHF   =         0.00000000
  -V(xc)+E(xc)   XCENC  =      3249.26318602
  PAW double counting   =     90978.86206872   -90648.37202456
  entropy T*S    EENTRO =        -0.00000000
  eigenvalues    EBANDS =     -8447.32217203
  atomic energy  EATOM  =     64968.54023382
  Solvation  Ediel_sol  =         0.00000000
  ---------------------------------------------------
  free energy    TOTEN  =      -939.70381863 eV

  energy without entropy =     -939.70381863  energy(sigma->0) =     -939.70381863


--------------------------------------------------------------------------------------------------------




--------------------------------------- Iteration      1(  18)  ---------------------------------------


    POTLOK:  cpu time    0.1665: real time    0.1749
    SETDIJ:  cpu time    0.3490: real time    0.3506
     EDDAV:  cpu time   59.3371: real time   59.5157
       DOS:  cpu time    0.0012: real time    0.0012
    CHARGE:  cpu time    2.5409: real time    2.5438
    MIXING:  cpu time    0.0103: real time    0.0103
    --------------------------------------------
      LOOP:  cpu time   62.4050: real time   62.5965

 eigenvalue-minimisations  :  9520
 total energy-change (2. order) :-0.1425884E-05  (-0.9104831E-05)
 number of electron     864.0000007 magnetization 
 augmentation part      118.7200702 magnetization 

 Broyden mixing:
  rms(total) = 0.13879E-02    rms(broyden)= 0.13869E-02
  rms(prec ) = 0.16845E-02
  weight for this iteration     100.00

 eigenvalues of (default mixing * dielectric matrix)
  average eigenvalue GAMMA=   1.3834
  3.6337  2.4553  2.4553  0.8573  0.8573  0.9737  0.9737  1.0601  1.0601  0.9941
  0.9941  0.8344  0.8344

 Free energy of the ion-electron system (eV)
  ---------------------------------------------------
  alpha Z        PSCENC =      2210.34415451
  Ewald energy   TEWEN  =    -39616.04482680
  -Hartree energ DENC   =    -23634.83139136
  -exchange      EXHF   =         0.00000000
  -V(xc)+E(xc)   XCENC  =      3249.25286275
  PAW double counting   =     90981.91086573   -90651.42739008
  entropy T*S    EENTRO =        -0.00000000
  eigenvalues    EBANDS =     -8447.44832863
  atomic energy  EATOM  =     64968.54023382
  Solvation  Ediel_sol  =         0.00000000
  ---------------------------------------------------
  free energy    TOTEN  =      -939.70382005 eV

  energy without entropy =     -939.70382005  energy(sigma->0) =     -939.70382005


--------------------------------------------------------------------------------------------------------




--------------------------------------- Iteration      1(  19)  ---------------------------------------


    POTLOK:  cpu time    0.1688: real time    0.1750
    SETDIJ:  cpu time    0.3512: real time    0.3513
     EDDAV:  cpu time   56.4671: real time   56.5355
       DOS:  cpu time    0.0010: real time    0.0010
    CHARGE:  cpu time    2.4315: real time    2.4366
    MIXING:  cpu time    0.0104: real time    0.0104
    --------------------------------------------
      LOOP:  cpu time   59.4301: real time   59.5099

 eigenvalue-minimisations  :  8928
 total energy-change (2. order) : 0.4250032E-06  (-0.1721898E-05)
 number of electron     864.0000007 magnetization 
 augmentation part      118.7196703 magnetization 

 Broyden mixing:
  rms(total) = 0.49526E-03    rms(broyden)= 0.49324E-03
  rms(prec ) = 0.69146E-03
  weight for this iteration     100.00

 eigenvalues of (default mixing * dielectric matrix)
  average eigenvalue GAMMA=   1.4331
  3.9081  2.6797  2.3435  2.1004  0.8483  0.8483  0.9556  0.9556  1.0140  1.0140
  0.8602  0.8602  0.8378  0.8378

[...]
   0.154E+02 -.341E+02 -.654E+02   -.185E+02 0.300E+02 0.876E+02   0.442E+01 0.472E+01 -.208E+02   0.452E-03 -.210E-03 0.103E-02
   -.754E+02 0.383E+02 0.148E+02   0.623E+02 -.304E+02 -.144E+02   0.159E+02 -.106E+02 -.172E+01   0.731E-03 -.509E-03 -.252E-03
   0.642E+02 0.206E+02 -.203E+02   -.700E+02 -.302E+02 0.192E+02   0.646E+01 0.110E+02 0.421E+00   0.364E-03 -.146E-03 -.267E-03
   -.368E+00 -.121E+03 -.347E+01   0.760E+01 0.142E+03 0.668E+01   -.719E+01 -.244E+02 -.280E+01   0.762E-04 0.468E-03 -.829E-03
   -.776E+02 -.491E+02 -.117E+03   0.837E+02 0.604E+02 0.147E+03   -.526E+01 -.116E+02 -.285E+02   -.409E-03 0.261E-03 0.148E-02
   -.100E+03 0.737E+02 0.799E+01   0.126E+03 -.863E+02 -.186E+02   -.240E+02 0.127E+02 0.112E+02   0.632E-03 -.178E-05 -.108E-02
   0.450E+01 0.185E+01 0.568E+02   0.200E+01 -.171E+02 -.655E+02   -.708E+01 0.169E+02 0.883E+01   -.237E-03 0.206E-03 -.786E-03
   0.917E+02 0.768E+02 0.144E+03   -.101E+03 -.963E+02 -.145E+03   0.950E+01 0.212E+02 0.933E+00   0.460E-03 -.966E-03 -.135E-02
   -.617E+02 -.359E+02 -.337E+02   0.877E+02 0.395E+02 0.421E+02   -.275E+02 -.623E+01 -.965E+01   -.649E-03 0.773E-03 0.168E-03
   -.115E+03 0.179E+02 -.719E+02   0.102E+03 -.318E+02 0.864E+02   0.131E+02 0.142E+02 -.120E+02   0.335E-03 0.360E-03 -.114E-03
   -.104E+03 -.103E+03 0.420E+02   0.126E+03 0.109E+03 -.307E+02   -.222E+02 -.572E+01 -.121E+02   0.711E-03 -.574E-04 -.125E-02
   0.513E+01 0.141E+03 0.625E+02   -.197E+02 -.164E+03 -.911E+02   0.130E+02 0.229E+02 0.256E+02   -.982E-03 0.302E-03 0.530E-03
   -.493E+02 0.100E+03 -.729E+02   0.664E+02 -.114E+03 0.815E+02   -.171E+02 0.140E+02 -.846E+01   -.446E-03 0.330E-03 -.709E-03
   0.461E+02 0.408E+01 -.880E+02   -.395E+02 0.617E+01 0.960E+02   -.838E+01 -.131E+02 -.104E+02   -.544E-03 -.118E-02 0.510E-03
   0.329E+02 -.132E+01 0.166E+03   -.330E+02 0.442E+01 -.194E+03   0.331E+00 -.356E+01 0.282E+02   -.533E-03 -.247E-03 -.268E-02
   -.881E+02 0.339E+02 -.305E+02   0.105E+03 -.516E+02 0.439E+02   -.154E+02 0.194E+02 -.125E+02   -.694E-04 0.431E-03 -.550E-03
   0.649E+02 0.404E+01 -.254E+02   -.507E+02 0.132E+01 0.316E+02   -.157E+02 -.818E+01 -.357E+01   0.289E-03 0.142E-03 0.238E-03
   -.171E+02 -.192E+02 0.509E+02   0.319E+02 0.165E+02 -.447E+02   -.144E+02 0.335E+01 -.748E+01   0.243E-03 -.607E-03 -.127E-02
   0.110E+02 0.146E+02 0.834E+02   -.192E+02 -.175E+02 -.602E+02   0.847E+01 0.484E+01 -.248E+02   -.230E-03 -.304E-03 -.359E-03
   -.977E+02 -.125E+03 0.754E+02   0.929E+02 0.141E+03 -.930E+02   0.435E+01 -.151E+02 0.179E+02   0.149E-03 -.246E-03 0.620E-03
   0.735E+02 0.285E+02 0.147E+02   -.972E+02 -.238E+02 -.263E+02   0.225E+02 -.473E+01 0.119E+02   -.812E-03 0.416E-03 -.628E-03
   -.542E+02 -.168E+02 -.175E+02   0.707E+02 0.162E+02 0.344E+02   -.182E+02 0.161E+01 -.154E+02   -.272E-03 0.213E-03 -.384E-03
   -.131E+03 0.940E+01 0.107E+03   0.137E+03 -.307E+02 -.122E+03   -.555E+01 0.203E+02 0.149E+02   0.108E-02 -.804E-04 0.614E-03
   -.128E+02 -.127E+03 -.710E+02   0.334E+02 0.135E+03 0.800E+02   -.216E+02 -.620E+01 -.121E+02   -.112E-02 -.674E-03 0.543E-03
   -.781E+02 -.197E+03 -.431E+02   0.992E+02 0.224E+03 0.449E+02   -.229E+02 -.272E+02 -.299E+01   0.786E-03 0.301E-03 0.138E-02
   0.780E+02 0.372E+02 0.252E+02   -.718E+02 -.514E+02 -.371E+02   -.777E+01 0.154E+02 0.136E+02   -.268E-03 -.175E-03 0.290E-03
   -.440E+02 0.227E+02 0.470E+02   0.421E+02 -.335E+02 -.713E+02   0.354E+01 0.974E+01 0.255E+02   0.463E-05 -.545E-03 0.140E-03
   -.768E+02 0.334E+02 0.687E+02   0.967E+02 -.509E+02 -.794E+02   -.190E+02 0.177E+02 0.108E+02   0.819E-03 0.100E-04 -.136E-03
   0.175E+03 -.141E+03 0.109E+02   -.197E+03 0.166E+03 -.285E+02   0.172E+02 -.210E+02 0.131E+02   -.841E-03 -.261E-03 -.121E-03
   0.867E+02 0.143E+02 0.565E+02   -.935E+02 -.556E+01 -.727E+02   0.644E+01 -.115E+02 0.180E+02   0.567E-04 0.357E-03 -.403E-03
   0.543E+02 -.151E+02 -.865E+02   -.881E+02 0.231E+02 0.965E+02   0.302E+02 -.848E+01 -.870E+01   -.254E-03 0.143E-03 -.753E-03
   0.799E+02 -.270E+02 -.561E+02   -.982E+02 0.218E+02 0.716E+02   0.197E+02 0.542E+01 -.176E+02   -.636E-03 0.607E-04 -.896E-03
   -.108E+03 -.105E+03 -.903E+02   0.123E+03 0.132E+03 0.876E+02   -.141E+02 -.241E+02 0.345E+01   -.275E-03 0.460E-03 0.495E-03
   -.114E+02 0.986E+02 -.347E+01   0.633E+01 -.803E+02 0.558E+00   0.622E+01 -.224E+02 0.258E+01   0.225E-03 -.147E-03 0.344E-03
   0.648E+02 -.450E+02 -.260E+02   -.854E+02 0.230E+02 0.359E+02   0.174E+02 0.205E+02 -.105E+02   -.851E-03 -.948E-03 -.488E-03
   0.722E+02 0.590E+02 -.713E+02   -.959E+02 -.488E+02 0.729E+02   0.229E+02 -.105E+02 -.206E+01   -.440E-03 0.516E-03 -.216E-03
   0.797E+02 0.135E+03 -.717E+02   -.682E+02 -.153E+03 0.741E+02   -.132E+02 0.184E+02 -.356E+01   -.110E-02 -.681E-03 0.155E-02
   0.424E+02 -.109E+03 0.395E+02   -.418E+02 0.122E+03 -.520E+02   -.407E+00 -.158E+02 0.142E+02   -.519E-03 0.680E-03 0.596E-03
   0.207E+02 0.352E+02 0.751E+02   -.205E+02 -.223E+02 -.958E+02   -.641E+00 -.136E+02 0.203E+02   0.681E-03 0.981E-04 -.102E-02
   0.429E+02 0.122E+02 -.531E+02   -.578E+02 -.863E+01 0.656E+02   0.155E+02 -.448E+01 -.116E+02   -.624E-03 -.154E-03 -.538E-03
   0.784E+01 -.134E+03 0.135E+03   0.135E+02 0.160E+03 -.129E+03   -.211E+02 -.253E+02 -.544E+01   -.163E-03 0.919E-03 -.974E-03
   0.172E+02 0.856E+02 0.550E+02   -.344E+02 -.108E+03 -.572E+02   0.139E+02 0.216E+02 0.350E+00   -.398E-03 0.669E-04 -.694E-03
   0.456E+01 0.128E+01 0.221E+02   -.253E+02 -.500E+01 -.261E+02   0.235E+02 0.439E+01 0.469E+01   -.588E-03 0.652E-03 0.138E-02
   -.828E+02 -.895E+02 0.769E+02   0.863E+02 0.976E+02 -.943E+02   -.261E+01 -.900E+01 0.164E+02   -.811E-03 -.889E-03 0.737E-04
   -.137E+03 0.142E+02 -.101E+03   0.162E+03 -.166E+02 0.106E+03   -.249E+02 0.440E+01 -.364E+01   0.590E-03 -.854E-04 0.107E-02
   0.122E+03 0.214E+02 0.833E+02   -.111E+03 -.316E+02 -.939E+02   -.126E+02 0.106E+02 0.112E+02   -.232E-03 0.136E-03 0.358E-03
   0.143E+02 0.551E+02 0.246E+02   -.117E+02 -.799E+02 -.151E+02   -.212E+01 0.265E+02 -.110E+02   -.746E-03 -.868E-03 -.784E-04
   -.151E+03 -.299E+02 -.464E+02   0.168E+03 0.420E+02 0.466E+02   -.186E+02 -.111E+02 0.312E+00   -.214E-03 0.550E-03 0.894E-03
 -----------------------------------------------------------------------------------------------
   0.484E+02 -.726E+01 0.164E+02   -.853E-13 0.298E-12 -.412E-12   -.484E+02 0.726E+01 -.164E+02   0.522E-03 0.518E-02 -.604E-02
 
 
 POSITION                                       TOTAL-FORCE (eV/Angst)
 -----------------------------------------------------------------------------------
      7.27075      7.51885      3.16355        -0.972139     -1.462169      1.815326
     10.86226      0.24413     11.06952        -0.686524     -0.453965      0.483283
      8.58121      7.45403      0.03705         0.049880     -0.171384     -1.142529
      7.94479      1.83728      0.57282         0.520108     -0.142330     -0.005562
     12.59086      3.46753      1.78022         1.352810      0.543117     -0.746774
      6.49633      1.10472     10.01842        -1.686576     -0.195035      0.045824
      6.09543      4.78443     11.08156        -1.220196      2.451517      0.291111
      4.90977      0.66939      3.48477        -0.676458      0.090594     -0.645631
     11.63108      0.96590      5.60828        -2.639724      2.193644      0.387056
      5.72984     11.88067     12.27734        -0.469569     -1.435143      1.069878
      6.75219      5.23317      5.31243        -2.474423     -1.231582     -0.796417
     10.68430      6.55295      3.41710         2.251175      2.921782      0.564899
      4.20911      8.74722      6.97576        -0.721407      0.132310      1.849049
     11.39304     12.10063      3.06704        -0.784592      0.243064     -1.162820
      1.99421     12.43176      5.91966         0.690596      0.754365     -0.599843
      9.18256      3.29187      7.26099         0.989628      1.013324      1.386320
      0.98106      8.42388      4.40066        -0.184822     -0.299645     -0.249824
      0.29590      3.45409      9.76831        -0.336774      0.007973      0.125802
      1.17378      0.41198      0.52411        -0.696837     -1.351457     -1.060599
     12.72413      6.17436     11.73965        -0.772035      0.625785     -0.095092
     12.81105      9.41009      0.81501        -1.151494      0.718052     -0.840550
      6.91727      8.13089      9.67461        -1.732801      0.110810      0.173287
      2.82531      8.26840     11.54849        -0.937371      0.879529     -0.819797
      8.18213     10.19438      5.48656        -2.210867      0.303409      1.312188
      4.24878      4.70389      2.02149        -1.488699      0.480984     -0.605115
      1.23795      2.96104      6.40144        -0.493023      1.974576     -1.236342
      9.09930      0.07984      7.91474        -1.704728     -0.021831     -1.210100
     11.39377      5.68752      7.14722         0.349200      1.174812     -1.902177
      4.54051     11.03679      8.96996        -1.584910     -0.054704      3.965710
      8.50141      3.14170     10.55744        -0.710170     -0.011016     -2.015077
     10.29989      4.39975     12.61199        -1.417772      0.693813      3.294846
      8.55555      6.57154      7.08995         7.604765     -4.840675     -3.260862
      9.58634     10.29362     10.21669         0.517424      4.347886      4.003789
      4.38623      7.39842      3.55433         3.373840      1.313875      4.985140
      4.61300      9.73104      1.75698        -0.749908     -0.327223     -2.452729
      9.25437     11.79387      0.19704         2.110727     -2.528966     -0.357533
     11.11659     10.64385      8.09252        -3.069950      0.561978      2.645907
      1.51554      6.85828      1.70437         0.554726     -3.710180      1.414553
      2.67936      2.61368     11.48544         4.730770      1.745830      5.709242
      9.54534      9.44501      2.37784         1.064133      1.306662     -2.246025
      1.97913     11.18515      2.35578         0.391607     -0.083817      0.780993
      9.57376      4.28779      3.08204         0.139069     -4.165722     -4.580185
      4.41589      2.20639      6.59807         0.863648      5.219300     -4.095411
      4.98776      7.30033     12.69093         2.429157      0.892027      0.751301
      1.23963      1.28252      3.18108         1.830990     -0.595535      4.028365
      3.60619      4.15199      8.86015         0.757657     -4.311920     -0.895025
      1.27692      6.70219      8.28091        -2.500188     -0.688169      1.222378
     11.60913     10.26620      5.83940        -2.367858     -0.234948     -3.340733
     12.73381      0.41395      8.59072        -0.458362     -3.129813      2.283571
      5.46134     12.34541      6.16295         0.554783      1.764042      5.472612
      4.42177      1.87463      0.35902         2.376014      3.349803     -3.603002
      9.42364      6.21019      9.80259        -0.911000     -0.551781     -0.609843
      1.48219     11.20055     10.65431        -0.146753     -4.223257      0.309056
      8.48851      1.51810      4.35860         3.788887     -0.892770     -1.237929
     12.83592      0.77474      2.48446        -0.476714      2.132706     -3.020876
      5.54700      1.18054     12.31218         0.096896     -0.313202      1.362516
     10.41000      6.06931      0.17029        -1.069810     -2.882712     -0.140451
     12.77494      6.74667      7.42897         0.076808     -1.348668      0.359598
      2.91982      1.83764      5.83519         2.496623     -2.506692      2.014061
     10.89038      9.65679      9.49524         1.374220      1.965805     -2.919357
      9.37558      1.65889      5.87833        -1.919714     -1.362356      0.730657
      9.84104     10.62033     11.93160        -0.154647      1.571266      0.173091
     12.15674      1.24778      9.77423         0.335004      3.623540      1.066029
      0.52211      1.06064      4.74719         3.590670     -0.321011     -0.994114
      3.07921      6.92107      2.83514        -2.574987      1.433851      0.512452
      0.18935      1.34582      7.37091         0.775848     -0.987645      0.048546
      8.72252      7.27157      8.45769         1.487789     -0.871950      4.369698
      3.02103      2.93370     10.03518         1.154815      0.627893     -4.301579
      1.10572      6.28941      9.82854         0.029749     -0.605149      0.073723
      2.32334      7.66288      7.70107         1.464269      0.774468     -1.153511
      0.06186      7.07735      2.69397         3.017855      0.662256     -0.247523
      3.60133      6.86938      0.35919        -0.700420     -1.563065     -0.312291
      9.78342     10.36227      6.82664         4.842697      0.814039      2.426561
      6.75374     11.85835      6.88561         3.040922     -1.717803      0.113402
      1.79554     10.42849      3.74952        -0.214890     -0.528088      2.675672
      4.08339     11.54464      7.42117         0.377399      0.339620      0.126754
      9.51115     11.95159      9.69073        -1.154667     -3.217118      0.821099
      0.75071     12.20213      9.45098        -0.489736      0.531352     -1.820563
      2.18796      4.27763      8.06260        -0.543712      0.960093     -0.116956
     12.36140     10.02021      7.28654         1.031092      0.379878     -0.552981
      8.19601      8.73422      1.97298        -1.378774      0.193533     -5.013408
      1.93485      5.25892      1.60604        -2.355083     -0.012394     -0.599469
     11.76601      9.09086      4.72827         0.887717      1.757164      1.438235
      9.10975      3.05294      3.86144        -2.560433     -4.061636      1.780151
     10.32119      0.01405      0.19894         1.262863      3.007334     -0.466384
      5.38836     12.04772     10.00139         1.075671      0.189118     -1.385325
      8.55898      5.36917      3.56211        -0.167429      3.805450     -0.645319
      9.13294      9.42634      3.90902         1.329698      0.646512      1.474167
     11.22374     12.51149      8.17975         2.813519     -2.646894     -1.295357
      9.42184      3.66755      1.27161         0.584771      1.290038     -0.627085
      3.91390      3.60099     12.35723         0.041360     -2.918914      0.414081
      4.74643      2.36981      1.79630         0.835131     -0.370608      1.357290
     11.75965      3.99661     12.16313         2.099720      0.070318      0.540348
      8.65630      1.74962      9.52845        -0.583308      1.702083      0.136995
      1.05253      9.51155     10.74878         0.415642      1.702199     -0.419984
      5.63415      1.09993      6.66932        -1.505813     -2.626485     -1.283633
     10.35835      5.14450      8.25407         0.162331      0.326268      2.550328
     10.83106      6.39713     10.56088        -0.422147     -0.161109     -0.719660
      4.83095     11.72414      4.93172        -1.615852      0.402914     -3.030418
      6.29017      6.39498      0.27824         0.052299      0.231977      0.101379
      4.60203      8.28359      5.08566        -1.730366     -2.854000     -2.378946
      5.02567      7.51186     11.07411         0.323357     -0.462124      0.438488
      9.58167      2.95240     11.72464         1.158455      1.711240      0.948066
      9.92354     11.01967      1.53124        -1.430142     -2.809455      2.637035
      3.09838     11.09393     10.23777         0.445425      0.581896     -1.288206
      1.00743     11.58280     12.18241         0.287906      1.961626     -1.513189
     10.35340      6.65355      6.25460        -0.446249      0.589871      0.331416
      0.53972     11.33158      1.68047        -1.301509     -0.016675      0.357560
      4.64513      2.83640      8.08869        -1.829630      1.016758      1.516212
     11.91990      4.34467      6.42408         1.108448     -1.035219      0.004921
      5.27007      8.65617      2.92264        -1.071989      1.664398     -3.020194
      2.16233      2.59604      3.15028        -1.825010     -0.869340     -1.170852
      8.50350      5.01608      6.41365        -1.512871      1.119091      1.735045
      2.89759     10.22655      1.39582         1.573533     -0.997388      1.170137
     10.70845      8.46866      1.85163         0.912842      0.131060      0.104707
      7.64391      7.45376      6.33692        -5.194925      3.886569     -4.495465
      8.50868      4.57631      9.59808        -0.361012     -2.710843      1.812103
      1.20432      2.92030     11.66591        -3.625299     -0.402873      1.321025
      7.10305      2.90539     11.50292         1.432775      0.216116     -2.056917
      5.29509     11.10556      1.52502         1.277495      2.720591      0.750647
     11.48140     11.88278      5.42915         1.124109     -4.071294     -0.334899
      8.48720      9.29278     10.45129        -3.203737     -1.520727     -0.538957
      7.80662     12.47234      0.14028        -0.844230     -0.351948     -0.508282
      5.51103      6.12889      3.65534        -1.678139      0.769008     -1.152505
      4.89004      3.57576      5.50196         0.223869     -2.037425      1.700808
      1.22489      7.80083      0.41469        -0.375794     -0.686182     -0.439744
      8.13110      6.67673     10.79242         0.587929     -0.936673      0.875193
      4.68059      5.17773      9.31045         0.231815      0.570343      0.603406
      3.08799      1.29120     12.68477        -3.365515     -0.862978     -1.913075
      6.90352      1.17625      4.00719         2.767844      0.678591      0.624477
      4.87514      8.97003      0.31893         0.856819     -0.925575     -0.906433
     11.19495      4.31669      3.05151        -0.525057      1.987735      0.968627
      9.67821      0.50971      3.61761        -1.402937      0.429027      0.679603
      4.90369      9.42591      9.09854         0.481520      1.694962     -1.567842
      2.55516     12.78869      2.59192        -1.268634      1.003833      0.547473
 -----------------------------------------------------------------------------------
    total drift:                                0.023210      0.008324      0.002383


--------------------------------------------------------------------------------------------------------



  FREE ENERGIE OF THE ION-ELECTRON SYSTEM (eV)
  ---------------------------------------------------
  free  energy   TOTEN  =      -939.70382052 eV

  energy  without entropy=     -939.70382052  energy(sigma->0) =     -939.70382052
 


--------------------------------------------------------------------------------------------------------


    POTLOK:  cpu time    0.5176: real time    0.5195


--------------------------------------------------------------------------------------------------------


     LOOP+:  cpu time 1410.2104: real time 1414.2046
    4ORBIT:  cpu time    0.0000: real time    0.0000

 total amount of memory used by VASP MPI-rank0   209568. kBytes
=======================================================================

   base      :      30000. kBytes
   nonlr-proj:      23333. kBytes
   fftplans  :      34299. kBytes
   grid      :      19248. kBytes
   one-center:        186. kBytes
   wavefun   :     102502. kBytes
 
  
  
 General timing and accounting informations for this job:
 ========================================================
  
                  Total CPU time used (sec):     1440.664
                            User time (sec):     1435.168
                          System time (sec):        5.496
                         Elapsed time (sec):     1444.942
  
                   Maximum memory used (kb):      358804.
                   Average memory used (kb):           0.
  
                          Minor page faults:       300440
                          Major page faults:            0
                 Voluntary context switches:          436
