 vasp.5.4.4.18Apr17-6-g9f103f2a35 (build Oct 31 2019 15:01:46) complex          
  
 executed on             LinuxIFC date 2024.04.20  02:22:55
 running on   52 total cores
 distrk:  each k-point on   52 cores,    1 groups
 distr:  one band on NCORES_PER_BAND=  13 cores,    4 groups


--------------------------------------------------------------------------------------------------------


 INCAR:
 POTCAR:    PAW_PBE Sc_sv 07Sep2000               
 POTCAR:    PAW_PBE F 08Apr2002                   
 POTCAR:    PAW_PBE C 08Apr2002                   
 POTCAR:    PAW_PBE Sc_sv 07Sep2000               
   VRHFIN =Sc: 3p4s3d                                                           
   LEXCH  = PE                                                                  
   EATOM  =  1273.2868 eV,   93.5839 Ry                                         
                                                                                
   TITEL  = PAW_PBE Sc_sv 07Sep2000                                             
   LULTRA =        F    use ultrasoft PP ?                                      
   IUNSCR =        1    unscreen: 0-lin 1-nonlin 2-no                           
   RPACOR =    2.200    partial core radius                                     
   POMASS =   44.956; ZVAL   =   11.000    mass and valenz                      
   RCORE  =    2.500    outmost cutoff radius                                   
   RWIGS  =    2.700; RWIGS  =    1.429    wigner-seitz radius (au A)           
   ENMAX  =  222.660; ENMIN  =  166.995 eV                                      
   RCLOC  =    1.805    cutoff for local pot                                    
   LCOR   =        T    correct aug charges                                     
   LPAW   =        T    paw PP                                                  
   EAUG   =  443.063                                                            
   RMAX   =    2.551    core radius for proj-oper                               
   RAUG   =    1.300    factor for augmentation sphere                          
   RDEP   =    2.650    radius for radial grids                                 
   RDEPT  =    2.038    core radius for aug-charge                              
                                                                                
   Atomic configuration                                                         
    8 entries                                                                   
     n  l   j            E        occ.                                          
     1  0  0.50     -4394.2533   2.0000                                         
     2  0  0.50      -471.0040   2.0000                                         
     2  1  1.50      -384.9788   6.0000                                         
     3  0  0.50       -52.1410   2.0000                                         
     4  0  0.50        -3.5584   1.0000                                         
     3  1  1.50       -30.8841   6.0000                                         
     3  2  2.50        -1.3655   2.0000                                         
     4  3  2.50        -1.3606   0.0000                                         
   Description                                                                  
     l       E           TYP  RCUT    TYP  RCUT                                 
     0    -52.1409870     23  1.800                                             
     0     -3.5583698     23  2.500                                             
     1    -30.8840697     23  2.300                                             
     1      4.0817478     23  2.300                                             
     2     -1.3655397     23  2.500                                             
     2      0.3564476     23  2.500                                             
  local pseudopotential read in
  partial core-charges read in
  partial kinetic energy density read in
  atomic valenz-charges read in
  non local Contribution for L=           0  read in
    real space projection operators read in
  non local Contribution for L=           0  read in
    real space projection operators read in
  non local Contribution for L=           1  read in
    real space projection operators read in
  non local Contribution for L=           1  read in
    real space projection operators read in
  non local Contribution for L=           2  read in
    real space projection operators read in
  non local Contribution for L=           2  read in
    real space projection operators read in
    PAW grid and wavefunctions read in
 
   number of l-projection  operators is LMAX  =           6
   number of lm-projection operators is LMMAX =          18
 
 POTCAR:    PAW_PBE F 08Apr2002                   
   VRHFIN =F: s2p5                                                              
   LEXCH  = PE                                                                  
   EATOM  =   659.6475 eV,   48.4827 Ry                                         
                                                                                
   TITEL  = PAW_PBE F 08Apr2002                                                 
   LULTRA =        F    use ultrasoft PP ?                                      
   IUNSCR =        1    unscreen: 0-lin 1-nonlin 2-no                           
   RPACOR =    1.200    partial core radius                                     
   POMASS =   18.998; ZVAL   =    7.000    mass and valenz                      
   RCORE  =    1.520    outmost cutoff radius                                   
   RWIGS  =    1.500; RWIGS  =    0.794    wigner-seitz radius (au A)           
   ENMAX  =  400.000; ENMIN  =  300.000 eV                                      
   ICORE  =        2    local potential                                         
   LCOR   =        T    correct aug charges                                     
   LPAW   =        T    paw PP                                                  
   EAUG   =  613.614                                                            
   RMAX   =    1.555    core radius for proj-oper                               
   RAUG   =    1.300    factor for augmentation sphere                          
   RDEP   =    1.539    radius for radial grids                                 
   RDEPT  =    1.299    core radius for aug-charge                              
                                                                                
   Atomic configuration                                                         
    4 entries                                                                   
     n  l   j            E        occ.                                          
     1  0  0.50      -663.3661   2.0000                                         
     2  0  0.50       -29.8995   2.0000                                         
     2  1  0.50       -11.1114   5.0000                                         
     3  2  1.50       -10.8847   0.0000                                         
   Description                                                                  
     l       E           TYP  RCUT    TYP  RCUT                                 
     0    -29.8995018     23  1.200                                             
     0     -9.5240782     23  1.200                                             
     1    -11.1113914     23  1.520                                             
     1      1.3605826     23  1.520                                             
     2    -10.8846608      7  1.500                                             
  local pseudopotential read in
  partial core-charges read in
  partial kinetic energy density read in
  atomic valenz-charges read in
  non local Contribution for L=           0  read in
    real space projection operators read in
  non local Contribution for L=           0  read in
    real space projection operators read in
  non local Contribution for L=           1  read in
    real space projection operators read in
  non local Contribution for L=           1  read in
    real space projection operators read in
    PAW grid and wavefunctions read in
 
   number of l-projection  operators is LMAX  =           4
   number of lm-projection operators is LMMAX =           8
 
 POTCAR:    PAW_PBE C 08Apr2002                   
   VRHFIN =C: s2p2                                                              
   LEXCH  = PE                                                                  
   EATOM  =   147.1560 eV,   10.8157 Ry                                         
                                                                                
   TITEL  = PAW_PBE C 08Apr2002                                                 
   LULTRA =        F    use ultrasoft PP ?                                      
   IUNSCR =        1    unscreen: 0-lin 1-nonlin 2-no                           
   RPACOR =    1.200    partial core radius                                     
   POMASS =   12.011; ZVAL   =    4.000    mass and valenz                      
   RCORE  =    1.500    outmost cutoff radius                                   
   RWIGS  =    1.630; RWIGS  =    0.863    wigner-seitz radius (au A)           
   ENMAX  =  400.000; ENMIN  =  300.000 eV                                      
   ICORE  =        2    local potential                                         
   LCOR   =        T    correct aug charges                                     
   LPAW   =        T    paw PP                                                  
   EAUG   =  644.873                                                            
   DEXC   =    0.000                                                            
   RMAX   =    1.529    core radius for proj-oper                               
   RAUG   =    1.300    factor for augmentation sphere                          
   RDEP   =    1.501    radius for radial grids                                 
   RDEPT  =    1.300    core radius for aug-charge                              
                                                                                
   Atomic configuration                                                         
    4 entries                                                                   
     n  l   j            E        occ.                                          
     1  0  0.50      -273.3789   2.0000                                         
     2  0  0.50       -13.7508   2.0000                                         
     2  1  0.50        -5.2854   2.0000                                         
     3  2  1.50        -5.4423   0.0000                                         
   Description                                                                  
     l       E           TYP  RCUT    TYP  RCUT                                 
     0    -13.7508458     23  1.200                                             
     0     -8.2022199     23  1.200                                             
     1     -5.2854383     23  1.500                                             
     1     34.0145650     23  1.500                                             
     2     -5.4423304      7  1.500                                             
  local pseudopotential read in
  partial core-charges read in
  partial kinetic energy density read in
  atomic valenz-charges read in
  non local Contribution for L=           0  read in
    real space projection operators read in
  non local Contribution for L=           0  read in
    real space projection operators read in
  non local Contribution for L=           1  read in
    real space projection operators read in
  non local Contribution for L=           1  read in
    real space projection operators read in
    PAW grid and wavefunctions read in
 
   number of l-projection  operators is LMAX  =           4
   number of lm-projection operators is LMMAX =           8
 
 Optimization of the real space projectors (new method)

 maximal supplied QI-value         = 15.12
 optimisation between [QCUT,QGAM] = [ 12.55, 25.10] = [ 44.09,176.36] Ry 
 Optimized for a Real-space Cutoff    1.56 Angstroem

   l    n(q)    QCUT    max X(q) W(low)/X(q) W(high)/X(q)  e(spline) 
   0     12    12.548     2.962    0.12E-05    0.11E-06    0.46E-07
   0     12    12.548    26.414    0.30E-04    0.15E-05    0.76E-07
   1     11    12.548     3.969    0.45E-05    0.12E-05    0.60E-07
   1     11    12.548     5.137    0.15E-04    0.18E-04    0.36E-06
   2     11    12.548   143.970    0.20E-03    0.19E-03    0.76E-06
   2     11    12.548   121.201    0.20E-03    0.19E-03    0.76E-06
 Optimization of the real space projectors (new method)

 maximal supplied QI-value         = 24.76
 optimisation between [QCUT,QGAM] = [ 12.38, 25.00] = [ 42.90,175.06] Ry 
 Optimized for a Real-space Cutoff    1.16 Angstroem

   l    n(q)    QCUT    max X(q) W(low)/X(q) W(high)/X(q)  e(spline) 
   0      9    12.378    14.049    0.11E-03    0.38E-05    0.23E-06
   0      9    12.378     8.945    0.15E-03    0.56E-05    0.30E-06
   1      8    12.378     7.086    0.18E-03    0.14E-03    0.29E-06
   1      8    12.378     6.747    0.16E-03    0.13E-03    0.26E-06
 Optimization of the real space projectors (new method)

 maximal supplied QI-value         = 25.13
 optimisation between [QCUT,QGAM] = [ 12.32, 24.88] = [ 42.47,173.37] Ry 
 Optimized for a Real-space Cutoff    1.16 Angstroem

   l    n(q)    QCUT    max X(q) W(low)/X(q) W(high)/X(q)  e(spline) 
   0      9    12.315   115.676    0.19E-03    0.80E-05    0.34E-06
   0      9    12.315    87.132    0.19E-03    0.82E-05    0.34E-06
   1      8    12.315     4.429    0.18E-03    0.13E-03    0.22E-06
   1      8    12.315     2.733    0.14E-03    0.10E-03    0.18E-06
  PAW_PBE Sc_sv 07Sep2000               :
 energy of atom  1       EATOM=-1273.2868
 kinetic energy error for atom=    0.0014 (will be added to EATOM!!)
  PAW_PBE F 08Apr2002                   :
 energy of atom  2       EATOM= -659.6475
 kinetic energy error for atom=    0.0256 (will be added to EATOM!!)
  PAW_PBE C 08Apr2002                   :
 energy of atom  3       EATOM= -147.1560
 kinetic energy error for atom=    0.0057 (will be added to EATOM!!)
 
 
 POSCAR: Sc  F  C                                
  positions in cartesian coordinates
  No initial velocities read in
 exchange correlation table for  LEXCH =        8
   RHO(1)=    0.500       N(1)  =     2000
   RHO(2)=  100.500       N(2)  =     4000
 


--------------------------------------------------------------------------------------------------------


 ion  position               nearest neighbor table
   1  0.076  0.165  0.452-  65 2.15  66 2.18  61 2.22  49 2.28  50 2.33  70 2.36  29 3.17  18 3.21
                             4 3.21  17 3.21   6 3.24  16 3.27   2 3.31  13 3.33   5 3.42
   2  0.083  0.421  0.455-  51 2.09  66 2.18  67 2.24  50 2.30  62 2.32  71 2.34  19 3.09  30 3.11
                             7 3.21  18 3.22   6 3.24   3 3.27   1 3.31  14 3.32  13 3.33
   3  0.082  0.669  0.455-  67 2.20  63 2.27  52 2.28  51 2.29  68 2.31  72 2.39  20 3.10  15 3.15
                            31 3.19  19 3.21   8 3.24   2 3.27  14 3.27   4 3.35   7 3.35
   4  0.087  0.926  0.451-  64 2.11  49 2.21  69 2.25  65 2.33  68 2.35  52 2.38  17 3.12   5 3.18
                            20 3.21   1 3.21  32 3.24   8 3.30  16 3.32   3 3.35  15 3.35
   5  0.335  0.161  0.452-  53 2.04  74 2.26  49 2.26  69 2.27  54 2.40  70 2.45  17 3.18  21 3.18
                             9 3.18   4 3.18   8 3.25  10 3.26  22 3.26   6 3.33   1 3.42
   6  0.324  0.409  0.452-  50 2.03  54 2.09  70 2.19  71 2.26  55 2.45  75 2.56  18 3.12  23 3.20
                            22 3.23   7 3.24   1 3.24   2 3.24   5 3.33  11 3.34  10 3.38
   7  0.333  0.660  0.453-  55 2.10  51 2.20  56 2.21  76 2.26  71 2.28  72 2.41  23 3.15  19 3.17
                            12 3.20  11 3.21   2 3.21   6 3.24  24 3.27   8 3.32   3 3.35
   8  0.331  0.912  0.456-  53 2.15  52 2.16  73 2.25  69 2.25  72 2.27  56 2.28  20 3.07  12 3.13
                            21 3.16   3 3.24   5 3.25   9 3.29   4 3.30  24 3.32   7 3.32
   9  0.579  0.166  0.453-  53 2.18  73 2.22  58 2.26  57 2.32  74 2.34  78 2.34  26 3.17   5 3.18
                            10 3.19  21 3.19  25 3.19  13 3.22  12 3.28   8 3.29  14 3.34
  10  0.582  0.410  0.450-  58 2.06  54 2.07  59 2.14  74 2.23  79 2.31  75 2.36  22 3.10   9 3.19
                            14 3.20   5 3.26  26 3.32  27 3.34  11 3.35  15 3.36   6 3.38
  11  0.579  0.664  0.450-  55 2.22  60 2.23  75 2.24  80 2.31  76 2.32  59 2.62  23 3.18   7 3.21
                            28 3.21  27 3.27  16 3.29  12 3.32   6 3.34  10 3.35  15 3.42
  12  0.569  0.911  0.454-  56 2.14  77 2.23  76 2.25  73 2.32  60 2.35  57 2.44  28 3.08   8 3.13
                            25 3.19  24 3.20   7 3.20   9 3.28  11 3.32  16 3.39  13 3.42
  13  0.827  0.172  0.443-  57 1.99  62 2.11  61 2.16  78 2.22  66 2.47  77 2.56   9 3.22  14 3.25
                            25 3.30   1 3.33   2 3.33  30 3.38  16 3.39  29 3.39  12 3.42
  14  0.832  0.422  0.450-  79 2.15  78 2.25  62 2.26  58 2.33  63 2.34  67 2.37  15 3.13  31 3.20
                            10 3.20  13 3.25   3 3.27  26 3.27  30 3.28   2 3.32   9 3.34
  15  0.840  0.664  0.458-  68 2.14  59 2.18  79 2.23  63 2.26  80 2.32  64 2.36  31 3.02  27 3.11
                            32 3.12  14 3.13   3 3.15   4 3.35  10 3.36  16 3.38  11 3.42
  16  0.829  0.915  0.446-  61 2.07  60 2.21  80 2.23  64 2.23  77 2.32  65 2.44  28 3.23  32 3.23
                            29 3.27   1 3.27  11 3.29   4 3.32  15 3.38  13 3.39  12 3.39
  17  0.167  0.082  0.547-  36 2.17  37 2.24  69 2.25  65 2.26  70 2.32  33 2.35   4 3.12   5 3.18
                             1 3.21  18 3.23  20 3.23  32 3.25  21 3.25  29 3.38
  18  0.171  0.330  0.549-  38 2.13  70 2.14  33 2.15  71 2.27  34 2.33  66 2.36   6 3.12   1 3.21
                             2 3.22  17 3.23  23 3.26  19 3.29  30 3.34  22 3.36  29 3.37
  19  0.169  0.580  0.549-  34 2.06  39 2.22  72 2.26  71 2.27  35 2.27  67 2.28   2 3.09   7 3.17
                             3 3.21  24 3.21  30 3.24  23 3.27  18 3.29  20 3.37  31 3.39
  20  0.166  0.835  0.546-  40 2.18  35 2.19  69 2.22  36 2.22  72 2.23  68 2.28   8 3.07   3 3.10
                             4 3.21  17 3.23  21 3.25  32 3.34  31 3.35  19 3.37  24 3.41
  21  0.414  0.082  0.550-  73 2.19  41 2.21  37 2.22  40 2.24  69 2.32  74 2.37   8 3.16   5 3.18
                             9 3.19  17 3.25  20 3.25  26 3.26  22 3.30  25 3.36
  22  0.433  0.342  0.547-  74 2.12  75 2.25  37 2.32  42 2.37  38 2.39  70 2.43  10 3.10  27 3.17
                            26 3.20  23 3.22   6 3.23   5 3.26  21 3.30  18 3.36
  23  0.418  0.579  0.547-  71 2.19  38 2.24  39 2.26  75 2.27  43 2.27  76 2.27   7 3.15  24 3.17
                            11 3.18   6 3.20  22 3.22  18 3.26  19 3.27  27 3.28  28 3.33
  24  0.417  0.820  0.554-  39 2.08  44 2.20  40 2.23  76 2.25  72 2.27  73 2.57  28 3.13  23 3.17
                            12 3.20  19 3.21   7 3.27   8 3.32  20 3.41  25 3.42
  25  0.671  0.085  0.547-  44 2.21  45 2.24  41 2.30  77 2.30  73 2.33  78 2.38  29 3.14  26 3.17
                            28 3.19  12 3.19   9 3.19  30 3.27  13 3.30  21 3.36  24 3.42
  26  0.667  0.324  0.550-  41 2.16  42 2.27  46 2.30  78 2.35  74 2.36  79 2.37  25 3.17   9 3.17
                            22 3.20  30 3.24  21 3.26  14 3.27  31 3.28  10 3.32  27 3.42
  27  0.671  0.587  0.549-  43 2.09  75 2.16  47 2.23  42 2.26  79 2.40  80 2.40  15 3.11  22 3.17
                            31 3.19  32 3.26  11 3.27  23 3.28  10 3.34  28 3.36  26 3.42
  28  0.664  0.839  0.544-  77 2.10  76 2.23  43 2.26  48 2.28  80 2.32  44 2.39  12 3.08  24 3.13
                            29 3.18  25 3.19  11 3.21  16 3.23  32 3.27  23 3.33  27 3.36
  29  0.908  0.080  0.546-  48 2.02  45 2.11  33 2.14  65 2.24  77 2.34  66 2.40  25 3.14   1 3.17
                            32 3.18  28 3.18  16 3.27  30 3.29  18 3.37  17 3.38  13 3.39
  30  0.920  0.336  0.548-  46 2.08  34 2.28  78 2.31  45 2.31  67 2.33  66 2.36   2 3.11  19 3.24
                            26 3.24  31 3.26  25 3.27  14 3.28  29 3.29  18 3.34  13 3.38
  31  0.910  0.580  0.549-  47 2.12  35 2.22  46 2.23  79 2.27  67 2.30  68 2.38  15 3.02   3 3.19
                            27 3.19  14 3.20  30 3.26  26 3.28  20 3.35  19 3.39  32 3.40
  32  0.913  0.840  0.546-  48 2.10  36 2.24  68 2.27  80 2.28  65 2.32  47 2.34  15 3.12  29 3.18
                            16 3.23   4 3.24  17 3.25  27 3.26  28 3.27  20 3.34  31 3.40
  33  0.069  0.166  0.587-  29 2.14  18 2.15  17 2.35
  34  0.092  0.429  0.591-  19 2.06  30 2.28  18 2.33
  35  0.082  0.670  0.588-  20 2.19  31 2.22  19 2.27
  36  0.083  0.920  0.589-  17 2.17  20 2.22  32 2.24
  37  0.332  0.169  0.592-  21 2.22  17 2.24  22 2.32
  38  0.326  0.414  0.593-  18 2.13  23 2.24  22 2.39
  39  0.333  0.662  0.593-  24 2.08  19 2.22  23 2.26
  40  0.328  0.909  0.589-  20 2.18  24 2.23  21 2.24
  41  0.579  0.164  0.593-  26 2.16  21 2.21  25 2.30
  42  0.604  0.425  0.597-  27 2.26  26 2.27  22 2.37
  43  0.593  0.669  0.587-  27 2.09  28 2.26  23 2.27
  44  0.581  0.929  0.596-  24 2.20  25 2.21  28 2.39
  45  0.838  0.161  0.592-  29 2.11  25 2.24  30 2.31
  46  0.844  0.412  0.592-  30 2.08  31 2.23  26 2.30
  47  0.839  0.665  0.592-  31 2.12  27 2.23  32 2.34
  48  0.840  0.928  0.585-  29 2.02  32 2.10  28 2.28
  49  0.169  0.089  0.406-   4 2.21   5 2.26   1 2.28
  50  0.178  0.343  0.410-   6 2.03   2 2.30   1 2.33
  51  0.163  0.575  0.413-   2 2.09   7 2.20   3 2.29
  52  0.180  0.835  0.408-   8 2.16   3 2.28   4 2.38
  53  0.408  0.076  0.416-   5 2.04   8 2.15   9 2.18
  54  0.424  0.351  0.413-  10 2.07   6 2.09   5 2.40
  55  0.415  0.595  0.406-   7 2.10  11 2.22   6 2.45
  56  0.413  0.825  0.410-  12 2.14   7 2.21   8 2.28
  57  0.675  0.092  0.406-  13 1.99   9 2.32  12 2.44
  58  0.654  0.332  0.407-  10 2.06   9 2.26  14 2.33
  59  0.690  0.567  0.408-  10 2.14  15 2.18  11 2.62
  60  0.660  0.830  0.406-  16 2.21  11 2.23  12 2.35
  61  0.906  0.077  0.411-  16 2.07  13 2.16   1 2.22
  62  0.915  0.336  0.406-  13 2.11  14 2.26   2 2.32
  63  0.923  0.595  0.404-  15 2.26   3 2.27  14 2.34
  64  0.928  0.838  0.410-   4 2.11  16 2.23  15 2.36
  65  0.003  0.012  0.499-   1 2.15  29 2.24  17 2.26  32 2.32   4 2.33  16 2.44
  66  0.005  0.255  0.496-   1 2.18   2 2.18  18 2.36  30 2.36  29 2.40  13 2.47
  67  0.004  0.507  0.500-   3 2.20   2 2.24  19 2.28  31 2.30  30 2.33  14 2.37
  68  0.997  0.756  0.501-  15 2.14  32 2.27  20 2.28   3 2.31   4 2.35  31 2.38
  69  0.247  0.997  0.500-  20 2.22   4 2.25   8 2.25  17 2.25   5 2.27  21 2.32
  70  0.248  0.255  0.501-  18 2.14   6 2.19  17 2.32   1 2.36  22 2.43   5 2.45
  71  0.256  0.499  0.503-  23 2.19   6 2.26  19 2.27  18 2.27   7 2.28   2 2.34
  72  0.254  0.752  0.506-  20 2.23  19 2.26  24 2.27   8 2.27   3 2.39   7 2.41
  73  0.497  0.008  0.502-  21 2.19   9 2.22   8 2.25  12 2.32  25 2.33  24 2.57
  74  0.497  0.255  0.501-  22 2.12  10 2.23   5 2.26   9 2.34  26 2.36  21 2.37
  75  0.516  0.510  0.502-  27 2.16  11 2.24  22 2.25  23 2.27  10 2.36   6 2.56
  76  0.497  0.747  0.501-  28 2.23  12 2.25  24 2.25   7 2.26  23 2.27  11 2.32
  77  0.737  0.987  0.497-  28 2.10  12 2.23  25 2.30  16 2.32  29 2.34  13 2.56
  78  0.759  0.256  0.495-  13 2.22  14 2.25  30 2.31   9 2.34  26 2.35  25 2.38
  79  0.751  0.493  0.498-  14 2.15  15 2.23  31 2.27  10 2.31  26 2.37  27 2.40
  80  0.752  0.758  0.496-  16 2.23  32 2.28  11 2.31  28 2.32  15 2.32  27 2.40
 
  LATTYP: Found a hexagonal cell.
 ALAT       =    13.1286233990
 C/A-ratio  =     2.0434811347
  
  Lattice vectors:
  
 A1 = (  13.1286234000,   0.0000000000,   0.0000000000)
 A2 = (  -6.5643117000,  11.3697213800,   0.0000000000)
 A3 = (   0.0000000000,   0.0000000000,  26.8280942400)


Analysis of symmetry for initial positions (statically):
=====================================================================
 Subroutine PRICEL returns:
 Original cell was already a primitive cell.
 

 Routine SETGRP: Setting up the symmetry group for a 
 hexagonal supercell.


 Subroutine GETGRP returns: Found  1 space group operations
 (whereof  1 operations were pure point group operations)
 out of a pool of 24 trial point group operations.


The static configuration has the point symmetry C_1 .


Analysis of symmetry for dynamics (positions and initial velocities):
=====================================================================
 Subroutine PRICEL returns:
 Original cell was already a primitive cell.
 

 Routine SETGRP: Setting up the symmetry group for a 
 hexagonal supercell.


 Subroutine GETGRP returns: Found  1 space group operations
 (whereof  1 operations were pure point group operations)
 out of a pool of 24 trial point group operations.


The dynamic configuration has the point symmetry C_1 .


 Subroutine INISYM returns: Found  1 space group operations
 (whereof  1 operations are pure point group operations),
 and found     1 'primitive' translations

 
 

Automatic generation of k-mesh.
 generate k-points for:    3    3    1
Space group operators:
 irot       det(A)        alpha          n_x          n_y          n_z        tau_x        tau_y        tau_z
    1     1.000000     0.000000     1.000000     0.000000     0.000000     0.000000     0.000000     0.000000
 
 Subroutine IBZKPT returns following result:
 ===========================================
 
 Found      5 irreducible k-points:
 
 Following reciprocal coordinates:
            Coordinates               Weight
  0.000000  0.000000  0.000000      1.000000
  0.333333 -0.000000  0.000000      2.000000
  0.000000  0.333333  0.000000      2.000000
  0.333333  0.333333  0.000000      2.000000
 -0.333333  0.333333  0.000000      2.000000
 
 Following cartesian coordinates:
            Coordinates               Weight
  0.000000  0.000000  0.000000      1.000000
  0.025390  0.014659  0.000000      2.000000
  0.000000  0.029318  0.000000      2.000000
  0.025390  0.043976  0.000000      2.000000
 -0.025390  0.014659  0.000000      2.000000
 


--------------------------------------------------------------------------------------------------------




 Dimension of arrays:
   k-points           NKPTS =      5   k-points in BZ     NKDIM =      5   number of bands    NBANDS=    384
   number of dos      NEDOS =    301   number of ions     NIONS =     80
   non local maximal  LDIM  =      6   non local SUM 2l+1 LMDIM =     18
   total plane-waves  NPLWV = ******
   max r-space proj   IRMAX =  10060   max aug-charges    IRDMAX= 222480
   dimension x,y,z NGX =   108 NGY =  108 NGZ =  216
   dimension x,y,z NGXF=   216 NGYF=  216 NGZF=  432
   support grid    NGXF=   432 NGYF=  432 NGZF=  864
   ions per type =              32  32  16
   NGX,Y,Z   is equivalent  to a cutoff of  13.68, 13.68, 13.38 a.u.
   NGXF,Y,Z  is equivalent  to a cutoff of  27.35, 27.35, 26.77 a.u.

 SYSTEM =  unknown system                          
 POSCAR =  Sc  F  C                                

 Startparameter for this run:
   NWRITE =      2    write-flag & timer
   PREC   = anorma    normal or accurate (medium, high low for compatibility)
   ISTART =      0    job   : 0-new  1-cont  2-samecut
   ICHARG =      2    charge: 1-file 2-atom 10-const
   ISPIN  =      1    spin polarized calculation?
   LNONCOLLINEAR =      F non collinear calculations
   LSORBIT =      F    spin-orbit coupling
   INIWAV =      1    electr: 0-lowe 1-rand  2-diag
   LASPH  =      F    aspherical Exc in radial PAW
   METAGGA=      F    non-selfconsistent MetaGGA calc.

 Electronic Relaxation 1
   ENCUT  =  600.0 eV  44.10 Ry    6.64 a.u.  26.22 26.22 53.58*2*pi/ulx,y,z
   ENINI  =  600.0     initial cutoff
   ENAUG  =  644.9 eV  augmentation charge cutoff
   NELM   =     60;   NELMIN=  2; NELMDL= -5     # of ELM steps 
   EDIFF  = 0.1E-05   stopping-criterion for ELM
   LREAL  =      T    real-space projection
   NLSPLINE    = F    spline interpolate recip. space projectors
   LCOMPAT=      F    compatible to vasp.4.4
   GGA_COMPAT  = T    GGA compatible to vasp.4.4-vasp.4.6
   LMAXPAW     = -100 max onsite density
   LMAXMIX     =    2 max onsite mixed and CHGCAR
   VOSKOWN=      0    Vosko Wilk Nusair interpolation
   ROPT   =   -0.00025  -0.00025  -0.00025
 Ionic relaxation
   EDIFFG = -.1E-01   stopping-criterion for IOM
   NSW    =      1    number of steps for IOM
   NBLOCK =      1;   KBLOCK =      1    inner block; outer block 
   IBRION =     -1    ionic relax: 0-MD 1-quasi-New 2-CG
   NFREE  =      0    steps in history (QN), initial steepest desc. (CG)
   ISIF   =      2    stress and relaxation
   IWAVPR =     10    prediction:  0-non 1-charg 2-wave 3-comb
   ISYM   =      2    0-nonsym 1-usesym 2-fastsym
   LCORR  =      T    Harris-Foulkes like correction to forces

   POTIM  = 1.0000    time-step for ionic-motion
   TEIN   =    0.0    initial temperature
   TEBEG  =    0.0;   TEEND  =   0.0 temperature during run
   SMASS  =  -3.00    Nose mass-parameter (am)
   estimated Nose-frequenzy (Omega)   =  0.10E-29 period in steps =****** mass=  -0.394E-26a.u.
   SCALEE = 1.0000    scale energy and forces
   NPACO  =    256;   APACO  = 16.0  distance and # of slots for P.C.
   PSTRESS=    0.0 pullay stress

  Mass of Ions in am
   POMASS =  44.96 19.00 12.01
  Ionic Valenz
   ZVAL   =  11.00  7.00  4.00
  Atomic Wigner-Seitz radii
   RWIGS  =  -1.00 -1.00 -1.00
  virtual crystal weights 
   VCA    =   1.00  1.00  1.00
   NELECT =     640.0000    total number of electrons
   NUPDOWN=      -1.0000    fix difference up-down

 DOS related values:
   EMIN   =  10.00;   EMAX   =-10.00  energy-range for DOS
   EFERMI =   0.00
   ISMEAR =     0;   SIGMA  =   0.05  broadening in eV -4-tet -1-fermi 0-gaus

 Electronic relaxation 2 (details)
   IALGO  =     38    algorithm
   LDIAG  =      T    sub-space diagonalisation (order eigenvalues)
   LSUBROT=      F    optimize rotation matrix (better conditioning)
   TURBO    =      0    0=normal 1=particle mesh
   IRESTART =      0    0=no restart 2=restart with 2 vectors
   NREBOOT  =      0    no. of reboots
   NMIN     =      0    reboot dimension
   EREF     =   0.00    reference energy to select bands
   IMIX   =      4    mixing-type and parameters
     AMIX     =   0.40;   BMIX     =  1.00
     AMIX_MAG =   1.60;   BMIX_MAG =  1.00
     AMIN     =   0.10
     WC   =   100.;   INIMIX=   1;  MIXPRE=   1;  MAXMIX= -45

 Intra band minimization:
   WEIMIN = 0.0000     energy-eigenvalue tresh-hold
   EBREAK =  0.65E-09  absolut break condition
   DEPER  =   0.30     relativ break condition  

   TIME   =   0.40     timestep for ELM

  volume/ion in A,a.u.               =      50.06       337.80
  Fermi-wavevector in a.u.,A,eV,Ry     =   0.888414  1.678858 10.738790  0.789279
  Thomas-Fermi vector in A             =   2.009840
 
 Write flags
   LWAVE        =      F    write WAVECAR
   LDOWNSAMPLE  =      F    k-point downsampling of WAVECAR
   LCHARG       =      F    write CHGCAR
   LVTOT        =      F    write LOCPOT, total local potential
   LVHAR        =      F    write LOCPOT, Hartree potential only
   LELF         =      F    write electronic localiz. function (ELF)
   LORBIT       =      0    0 simple, 1 ext, 2 COOP (PROOUT), +10 PAW based schemes


 Dipole corrections
   LMONO  =      F    monopole corrections only (constant potential shift)
   LDIPOL =      F    correct potential (dipole corrections)
   IDIPOL =      0    1-x, 2-y, 3-z, 4-all directions 
   EPSILON=  1.0000000 bulk dielectric constant

 Exchange correlation treatment:
   GGA     =    --    GGA type
   LEXCH   =     8    internal setting for exchange type
   VOSKOWN=      0    Vosko Wilk Nusair interpolation
   LHFCALC =     F    Hartree Fock is set to
   LHFONE  =     F    Hartree Fock one center treatment
   AEXX    =    0.0000 exact exchange contribution

 Linear response parameters
   LEPSILON=     F    determine dielectric tensor
   LRPA    =     F    only Hartree local field effects (RPA)
   LNABLA  =     F    use nabla operator in PAW spheres
   LVEL    =     F    velocity operator in full k-point grid
   LINTERFAST=   F  fast interpolation
   KINTER  =     0    interpolate to denser k-point grid
   CSHIFT  =0.1000    complex shift for real part using Kramers Kronig
   OMEGAMAX=  -1.0    maximum frequency
   DEG_THRESHOLD= 0.2000000E-02 threshold for treating states as degnerate
   RTIME   =   -0.100 relaxation time in fs
  (WPLASMAI=    0.000 imaginary part of plasma frequency in eV, 0.658/RTIME)
   DFIELD  = 0.0000000 0.0000000 0.0000000 field for delta impulse in time
 
 Orbital magnetization related:
   ORBITALMAG=     F  switch on orbital magnetization
   LCHIMAG   =     F  perturbation theory with respect to B field
   DQ        =  0.001000  dq finite difference perturbation B field
   LLRAUG    =     F  two centre corrections for induced B field



--------------------------------------------------------------------------------------------------------


 Static calculation
 charge density and potential will be updated during run
 non-spin polarized calculation
 Variant of blocked Davidson
 Davidson routine will perform the subspace rotation
 perform sub-space diagonalisation
    after iterative eigenvector-optimisation
 modified Broyden-mixing scheme, WC =      100.0
 initial mixing is a Kerker type mixing with AMIX =  0.4000 and BMIX =      1.0000
 Hartree-type preconditioning will be used
 using additional bands           64
 real space projection scheme for non local part
 use partial core corrections
 calculate Harris-corrections to forces 
   (improved forces if not selfconsistent)
 use gradient corrections 
 use of overlap-Matrix (Vanderbilt PP)
 Gauss-broadening in eV      SIGMA  =   0.05


--------------------------------------------------------------------------------------------------------


  energy-cutoff  :      600.00
  volume of cell :     4004.60
      direct lattice vectors                 reciprocal lattice vectors
    13.128623400  0.000000000  0.000000000     0.076169448  0.043976451  0.000000000
    -6.564311700 11.369721380  0.000000000     0.000000000  0.087952903  0.000000000
     0.000000000  0.000000000 26.828094240     0.000000000  0.000000000  0.037274358

  length of vectors
    13.128623400 13.128623399 26.828094240     0.087952903  0.087952903  0.037274358


 
 k-points in units of 2pi/SCALE and weight: read from INCAR                         
   0.00000000  0.00000000  0.00000000       0.111
   0.02538982  0.01465882  0.00000000       0.222
   0.00000000  0.02931763  0.00000000       0.222
   0.02538982  0.04397645  0.00000000       0.222
  -0.02538982  0.01465882  0.00000000       0.222
 
 k-points in reciprocal lattice and weights: read from INCAR                         
   0.00000000  0.00000000  0.00000000       0.111
   0.33333333 -0.00000000  0.00000000       0.222
   0.00000000  0.33333333  0.00000000       0.222
   0.33333333  0.33333333  0.00000000       0.222
  -0.33333333  0.33333333  0.00000000       0.222
 
 position of ions in fractional coordinates (direct lattice) 
   0.07613043  0.16463682  0.45194673
   0.08338095  0.42052953  0.45534127
   0.08189711  0.66855085  0.45507071
   0.08698877  0.92572587  0.45070454
   0.33508524  0.16142564  0.45212530
   0.32447697  0.40938946  0.45239809
   0.33293028  0.65996503  0.45314518
   0.33140730  0.91235045  0.45623632
   0.57917016  0.16560795  0.45325357
   0.58240655  0.41009890  0.44986164
   0.57943907  0.66388110  0.45046477
   0.56913166  0.91105675  0.45432907
   0.82679245  0.17188490  0.44314728
   0.83158237  0.42158559  0.45038534
   0.83972705  0.66365257  0.45765385
   0.82894601  0.91472299  0.44635912
   0.16666663  0.08199410  0.54650601
   0.17066528  0.33000581  0.54863190
   0.16863810  0.57982787  0.54869955
   0.16564611  0.83527546  0.54638854
   0.41427299  0.08197091  0.54960522
   0.43269764  0.34218996  0.54659193
   0.41772809  0.57933250  0.54727488
   0.41702195  0.81987126  0.55448334
   0.67147105  0.08539639  0.54714730
   0.66727679  0.32449824  0.55030212
   0.67114163  0.58702995  0.54901588
   0.66394845  0.83915612  0.54446122
   0.90780016  0.07953107  0.54600913
   0.91952023  0.33612504  0.54808981
   0.91047311  0.57984095  0.54895751
   0.91349256  0.84045947  0.54630581
   0.06850554  0.16637470  0.58735302
   0.09228146  0.42922932  0.59135680
   0.08202980  0.66984222  0.58839028
   0.08276391  0.92005285  0.58904959
   0.33224719  0.16855818  0.59168067
   0.32585126  0.41425089  0.59281266
   0.33331230  0.66162692  0.59342519
   0.32802312  0.90908775  0.58932563
   0.57945045  0.16404235  0.59330157
   0.60388016  0.42536824  0.59729160
   0.59334485  0.66918655  0.58740893
   0.58116599  0.92893972  0.59556446
   0.83791903  0.16057534  0.59164095
   0.84401278  0.41238644  0.59171211
   0.83906499  0.66531799  0.59168731
   0.84001705  0.92795228  0.58474806
   0.16888407  0.08867280  0.40607026
   0.17763143  0.34340563  0.40983410
   0.16343744  0.57479165  0.41325951
   0.17966247  0.83473097  0.40794457
   0.40832990  0.07626791  0.41640205
   0.42368534  0.35134257  0.41331903
   0.41536388  0.59531522  0.40625858
   0.41269592  0.82538637  0.40985116
   0.67542839  0.09151350  0.40574797
   0.65383336  0.33151205  0.40690838
   0.69012422  0.56700433  0.40801149
   0.65951571  0.82963002  0.40585252
   0.90577958  0.07680065  0.41145910
   0.91522558  0.33615340  0.40644058
   0.92321944  0.59469553  0.40353888
   0.92829385  0.83806455  0.41001253
   0.00288293  0.01181481  0.49932667
   0.00517563  0.25450470  0.49591577
   0.00401914  0.50709074  0.50026272
   0.99689056  0.75599053  0.50073560
   0.24688100  0.99708797  0.49999619
   0.24772496  0.25523997  0.50119776
   0.25552898  0.49861506  0.50331273
   0.25384642  0.75183630  0.50646275
   0.49667125  0.00826975  0.50208922
   0.49655884  0.25534562  0.50059487
   0.51598462  0.50982016  0.50223732
   0.49666685  0.74669759  0.50097536
   0.73670509  0.98660770  0.49738221
   0.75923279  0.25558430  0.49544861
   0.75063555  0.49288616  0.49816391
   0.75175988  0.75794383  0.49625658
 
 position of ions in cartesian coordinates  (Angst):
  -0.08123961  1.87187478 12.12486935
  -1.66580984  4.78130355 12.21593845
  -3.31337984  7.60123690 12.20867996
  -4.93471034 10.52524519 12.09154399
   3.33955976  1.83536456 12.12966012
   1.57257597  4.65464406 12.13697870
   0.03870008  7.50361847 12.15702163
  -1.63803103 10.37317041 12.23995107
   6.51660463  1.88291630 12.15992960
   4.95417931  4.66271019 12.06893046
   3.24931482  7.54814311 12.08511122
   1.49145478 10.35846141 12.18878306
   9.72634065  1.95428341 11.88879696
   8.15011251  4.79331073 12.08298036
   6.66803785  7.54554486 12.27798056
   4.87839313 10.40014556 11.97496459
   1.64986864  0.93225008 14.66171481
   0.07433924  3.75207413 14.71874831
  -1.59218469  6.59248129 14.72056314
  -3.30830310  9.49684928 14.65856329
   4.90075148  0.93198640 14.74486061
   3.43448281  3.89060452 14.66401973
   1.68127563  6.58684914 14.68234206
   0.09303362  9.32170774 14.87573127
   8.25492196  0.97093315 14.67891933
   6.63031808  3.68945454 14.76355713
   4.95771820  6.67436696 14.72904969
   3.20824686  9.54097123 14.60685684
  11.39609968  0.90424616 14.64838427
   9.86560521  3.82164809 14.70420502
   8.14700186  6.59263004 14.72748384
   6.47586186  9.55579002 14.65634363
  -0.19275193  1.89163401 15.75756205
  -1.60606647  4.88021772 15.86497591
  -3.32011470  7.61591936 15.78538992
  -4.95293743 10.46074454 15.80307780
   3.25547977  1.91645949 15.87366470
   1.55870647  4.70991723 15.90403390
   0.03280630  7.52251369 15.92046687
  -1.66104343 10.33607447 15.81048355
   6.53056164  1.86511585 15.91715041
   5.13586554  4.83631832 16.02419531
   3.39705196  7.60846465 15.75906208
   1.53205953 10.56178583 15.97785951
   9.94665679  1.82569692 15.87259924
   8.37369278  4.68871894 15.87450818
   6.64841355  7.56448016 15.87384294
   4.93689944 10.55055886 15.68767608
   1.63513949  1.00818501 10.89409119
   0.07783451  3.90442634 10.99506798
  -1.62740297  6.53522087 11.08696513
  -3.12071344  9.49065860 10.94437525
   4.86016314  0.86714486 11.17127341
   3.25608310  3.99466709 11.08856196
   1.54532130  6.76856813 10.89914347
   0.00003590  9.38441306 10.99552563
   8.26672179  1.04048305 10.88544473
   6.40778349  3.76919962 10.91657631
   5.33838782  6.44668125 10.94617068
   3.21258332  9.43266213 10.88824956
  11.38749557  0.87320194 11.03866359
   9.80903628  3.82197051 10.90402618
   8.21683355  6.76152250 10.82617906
   6.68590339  9.52856048 10.99985487
  -0.03970725  0.13433115 13.39598309
  -1.60269932  2.89364754 13.30447492
  -3.27593583  5.76548038 13.42109528
   8.12524322  8.59540167 13.43378178
  -3.30398852 11.33661236 13.41394481
   1.57681300  2.90200730 13.44618061
   0.08167904  5.66911429 13.50292136
  -1.60263369  8.54816921 13.58743037
   6.46632455  0.09402479 13.47009684
   4.84296578  2.90320853 13.43000625
   3.42754935  5.79651314 13.47407015
   1.61899636  8.48974350 13.44021428
   3.19552327 11.21745464 13.34381674
   8.28994633  2.90592228 13.29194202
   6.61935305  5.60397833 13.36478843
   4.89419276  8.61761021 13.31361827
 


--------------------------------------------------------------------------------------------------------


 k-point  1 :   0.0000 0.0000 0.0000  plane waves:  133769
 k-point  2 :   0.3333-0.0000 0.0000  plane waves:  133588
 k-point  3 :   0.0000 0.3333 0.0000  plane waves:  133588
 k-point  4 :   0.3333 0.3333 0.0000  plane waves:  133608
 k-point  5 :  -0.3333 0.3333 0.0000  plane waves:  133588

 maximum and minimum number of plane-waves per node :     10323    10242

 maximum number of plane-waves:    133769
 maximum index in each direction: 
   IXMAX=   26   IYMAX=   26   IZMAX=   53
   IXMIN=  -26   IYMIN=  -26   IZMIN=  -53


 real space projection operators:
  total allocation   :      55713.00 KBytes
  max/ min on nodes  :       4730.55       4048.03


 parallel 3D FFT for wavefunctions:
    minimum data exchange during FFTs selected (reduces bandwidth)
 parallel 3D FFT for charge:
    minimum data exchange during FFTs selected (reduces bandwidth)


 total amount of memory used by VASP MPI-rank0   234730. kBytes
=======================================================================

   base      :      30000. kBytes
   nonlr-proj:      19462. kBytes
   fftplans  :      66973. kBytes
   grid      :      38377. kBytes
   one-center:        108. kBytes
   wavefun   :      79810. kBytes
 
     INWAV:  cpu time    0.0000: real time    0.0000
 Broyden mixing: mesh for mixing (old mesh)
   NGX = 53   NGY = 53   NGZ =107
  (NGX  =216   NGY  =216   NGZ  =432)
  gives a total of 300563 points

 initial charge density was supplied:
 charge density of overlapping atoms calculated
 number of electron     640.0000000 magnetization 
 keeping initial charge density in first step


--------------------------------------------------------------------------------------------------------


 Maximum index for non-local projection operator         1107
 Maximum index for augmentation-charges         5627 (set IRDMAX)


--------------------------------------------------------------------------------------------------------


 First call to EWALD:  gamma=   0.112
 Maximum number of real-space cells 4x 4x 2
 Maximum number of reciprocal cells 2x 2x 4

    FEWALD:  cpu time    0.0044: real time    0.0044


--------------------------------------- Iteration      1(   1)  ---------------------------------------


    POTLOK:  cpu time    0.5013: real time    0.5078
    SETDIJ:  cpu time    0.4643: real time    0.4644
     EDDAV:  cpu time   47.5740: real time   47.5782
       DOS:  cpu time    0.0015: real time    0.0015
    --------------------------------------------
      LOOP:  cpu time   48.5411: real time   48.5519

 eigenvalue-minimisations  :  4248
 total energy-change (2. order) : 0.1365424E+05  (-0.2787300E+05)
 number of electron     640.0000000 magnetization 
 augmentation part      640.0000000 magnetization 

 Free energy of the ion-electron system (eV)
  ---------------------------------------------------
  alpha Z        PSCENC =       871.83850952
  Ewald energy   TEWEN  =    285726.66937450
  -Hartree energ DENC   =   -340087.19768562
  -exchange      EXHF   =         0.00000000
  -V(xc)+E(xc)   XCENC  =      3042.53202429
  PAW double counting   =     50525.51240023   -50422.77561733
  entropy T*S    EENTRO =        -0.06878912
  eigenvalues    EBANDS =      -209.70775187
  atomic energy  EATOM  =     64207.43592568
  Solvation  Ediel_sol  =         0.00000000
  ---------------------------------------------------
  free energy    TOTEN  =     13654.23839028 eV

  energy without entropy =    13654.30717941  energy(sigma->0) =    13654.27278484


--------------------------------------------------------------------------------------------------------




--------------------------------------- Iteration      1(   2)  ---------------------------------------


     EDDAV:  cpu time   51.0383: real time   51.0550
       DOS:  cpu time    0.0013: real time    0.0013
    --------------------------------------------
      LOOP:  cpu time   51.0396: real time   51.0563

 eigenvalue-minimisations  :  4640
 total energy-change (2. order) :-0.1116462E+05  (-0.1086523E+05)
 number of electron     640.0000000 magnetization 
 augmentation part      640.0000000 magnetization 

 Free energy of the ion-electron system (eV)
  ---------------------------------------------------
  alpha Z        PSCENC =       871.83850952
  Ewald energy   TEWEN  =    285726.66937450
  -Hartree energ DENC   =   -340087.19768562
  -exchange      EXHF   =         0.00000000
  -V(xc)+E(xc)   XCENC  =      3042.53202429
  PAW double counting   =     50525.51240023   -50422.77561733
  entropy T*S    EENTRO =        -0.05904906
  eigenvalues    EBANDS =    -11374.34057956
  atomic energy  EATOM  =     64207.43592568
  Solvation  Ediel_sol  =         0.00000000
  ---------------------------------------------------
  free energy    TOTEN  =      2489.61530266 eV

  energy without entropy =     2489.67435172  energy(sigma->0) =     2489.64482719


--------------------------------------------------------------------------------------------------------




--------------------------------------- Iteration      1(   3)  ---------------------------------------


     EDDAV:  cpu time   68.7634: real time   68.7680
       DOS:  cpu time    0.0005: real time    0.0005
    --------------------------------------------
      LOOP:  cpu time   68.7639: real time   68.7685

 eigenvalue-minimisations  :  6800
 total energy-change (2. order) :-0.2872443E+04  (-0.2758438E+04)
 number of electron     640.0000000 magnetization 
 augmentation part      640.0000000 magnetization 

 Free energy of the ion-electron system (eV)
  ---------------------------------------------------
  alpha Z        PSCENC =       871.83850952
  Ewald energy   TEWEN  =    285726.66937450
  -Hartree energ DENC   =   -340087.19768562
  -exchange      EXHF   =         0.00000000
  -V(xc)+E(xc)   XCENC  =      3042.53202429
  PAW double counting   =     50525.51240023   -50422.77561733
  entropy T*S    EENTRO =        -0.00000000
  eigenvalues    EBANDS =    -14246.84282420
  atomic energy  EATOM  =     64207.43592568
  Solvation  Ediel_sol  =         0.00000000
  ---------------------------------------------------
  free energy    TOTEN  =      -382.82789293 eV

  energy without entropy =     -382.82789293  energy(sigma->0) =     -382.82789293


--------------------------------------------------------------------------------------------------------




--------------------------------------- Iteration      1(   4)  ---------------------------------------


     EDDAV:  cpu time   62.4532: real time   62.4618
       DOS:  cpu time    0.0005: real time    0.0005
    --------------------------------------------
      LOOP:  cpu time   62.4537: real time   62.4622

 eigenvalue-minimisations  :  6064
 total energy-change (2. order) :-0.3568485E+03  (-0.3527825E+03)
 number of electron     640.0000000 magnetization 
 augmentation part      640.0000000 magnetization 

 Free energy of the ion-electron system (eV)
  ---------------------------------------------------
  alpha Z        PSCENC =       871.83850952
  Ewald energy   TEWEN  =    285726.66937450
  -Hartree energ DENC   =   -340087.19768562
  -exchange      EXHF   =         0.00000000
  -V(xc)+E(xc)   XCENC  =      3042.53202429
  PAW double counting   =     50525.51240023   -50422.77561733
  entropy T*S    EENTRO =        -0.00000000
  eigenvalues    EBANDS =    -14603.69134884
  atomic energy  EATOM  =     64207.43592568
  Solvation  Ediel_sol  =         0.00000000
  ---------------------------------------------------
  free energy    TOTEN  =      -739.67641756 eV

  energy without entropy =     -739.67641756  energy(sigma->0) =     -739.67641756


--------------------------------------------------------------------------------------------------------




--------------------------------------- Iteration      1(   5)  ---------------------------------------


     EDDAV:  cpu time   62.5765: real time   62.5858
       DOS:  cpu time    0.0006: real time    0.0006
    CHARGE:  cpu time    3.6316: real time    3.6316
    MIXING:  cpu time    0.0171: real time    0.0174
    --------------------------------------------
      LOOP:  cpu time   66.2259: real time   66.2355

 eigenvalue-minimisations  :  6080
 total energy-change (2. order) :-0.1443342E+02  (-0.1437279E+02)
 number of electron     640.0000008 magnetization 
 augmentation part      134.5217886 magnetization 

 Broyden mixing:
  rms(total) = 0.76303E+01    rms(broyden)= 0.76300E+01
  rms(prec ) = 0.80389E+01
  weight for this iteration     100.00

 Free energy of the ion-electron system (eV)
  ---------------------------------------------------
  alpha Z        PSCENC =       871.83850952
  Ewald energy   TEWEN  =    285726.66937450
  -Hartree energ DENC   =   -340087.19768562
  -exchange      EXHF   =         0.00000000
  -V(xc)+E(xc)   XCENC  =      3042.53202429
  PAW double counting   =     50525.51240023   -50422.77561733
  entropy T*S    EENTRO =        -0.00000000
  eigenvalues    EBANDS =    -14618.12476426
  atomic energy  EATOM  =     64207.43592568
  Solvation  Ediel_sol  =         0.00000000
  ---------------------------------------------------
  free energy    TOTEN  =      -754.10983298 eV

  energy without entropy =     -754.10983298  energy(sigma->0) =     -754.10983298


--------------------------------------------------------------------------------------------------------




--------------------------------------- Iteration      1(   6)  ---------------------------------------


    POTLOK:  cpu time    0.4303: real time    0.4397
    SETDIJ:  cpu time    0.4545: real time    0.4545
     EDDAV:  cpu time   59.1003: real time   59.1162
       DOS:  cpu time    0.0007: real time    0.0007
    CHARGE:  cpu time    3.6224: real time    3.6224
    MIXING:  cpu time    0.0180: real time    0.0180
    --------------------------------------------
      LOOP:  cpu time   63.6262: real time   63.6515

 eigenvalue-minimisations  :  5680
 total energy-change (2. order) : 0.1557126E+03  (-0.8437664E+02)
 number of electron     640.0000008 magnetization 
 augmentation part      140.5744936 magnetization 

 Broyden mixing:
  rms(total) = 0.24984E+01    rms(broyden)= 0.24977E+01
  rms(prec ) = 0.25519E+01
  weight for this iteration     100.00

 eigenvalues of (default mixing * dielectric matrix)
  average eigenvalue GAMMA=   0.9737
  0.9737

 Free energy of the ion-electron system (eV)
  ---------------------------------------------------
  alpha Z        PSCENC =       871.83850952
  Ewald energy   TEWEN  =    285726.66937450
  -Hartree energ DENC   =   -340261.30447854
  -exchange      EXHF   =         0.00000000
  -V(xc)+E(xc)   XCENC  =      3054.91681737
  PAW double counting   =     56325.62633352   -56292.07551338
  entropy T*S    EENTRO =        -0.00000000
  eigenvalues    EBANDS =    -14231.50415656
  atomic energy  EATOM  =     64207.43592568
  Solvation  Ediel_sol  =         0.00000000
  ---------------------------------------------------
  free energy    TOTEN  =      -598.39718789 eV

  energy without entropy =     -598.39718789  energy(sigma->0) =     -598.39718789


--------------------------------------------------------------------------------------------------------




--------------------------------------- Iteration      1(   7)  ---------------------------------------


    POTLOK:  cpu time    0.4218: real time    0.4315
    SETDIJ:  cpu time    0.4185: real time    0.4370
     EDDAV:  cpu time   61.3681: real time   61.3703
       DOS:  cpu time    0.0007: real time    0.0007
    CHARGE:  cpu time    3.6333: real time    3.6333
    MIXING:  cpu time    0.0248: real time    0.0248
    --------------------------------------------
      LOOP:  cpu time   65.8672: real time   65.8976

 eigenvalue-minimisations  :  5936
 total energy-change (2. order) : 0.1329274E+00  (-0.5412978E+01)
 number of electron     640.0000008 magnetization 
 augmentation part      141.0141690 magnetization 

 Broyden mixing:
  rms(total) = 0.16362E+01    rms(broyden)= 0.16362E+01
  rms(prec ) = 0.16662E+01
  weight for this iteration     100.00

 eigenvalues of (default mixing * dielectric matrix)
  average eigenvalue GAMMA=   1.6371
  0.9582  2.3161

 Free energy of the ion-electron system (eV)
  ---------------------------------------------------
  alpha Z        PSCENC =       871.83850952
  Ewald energy   TEWEN  =    285726.66937450
  -Hartree energ DENC   =   -340406.74698873
  -exchange      EXHF   =         0.00000000
  -V(xc)+E(xc)   XCENC  =      3052.06833245
  PAW double counting   =     59981.51016501   -59954.64087252
  entropy T*S    EENTRO =        -0.00000000
  eigenvalues    EBANDS =    -14076.39870642
  atomic energy  EATOM  =     64207.43592568
  Solvation  Ediel_sol  =         0.00000000
  ---------------------------------------------------
  free energy    TOTEN  =      -598.26426050 eV

  energy without entropy =     -598.26426050  energy(sigma->0) =     -598.26426050


--------------------------------------------------------------------------------------------------------




--------------------------------------- Iteration      1(   8)  ---------------------------------------


    POTLOK:  cpu time    0.3809: real time    0.3934
    SETDIJ:  cpu time    0.4142: real time    0.4141
     EDDAV:  cpu time   57.6524: real time   57.6543
       DOS:  cpu time    0.0007: real time    0.0007
    CHARGE:  cpu time    3.6077: real time    3.6077
    MIXING:  cpu time    0.0241: real time    0.0241
    --------------------------------------------
      LOOP:  cpu time   62.0800: real time   62.0944

 eigenvalue-minimisations  :  5504
 total energy-change (2. order) : 0.1600786E+01  (-0.1052246E+01)
 number of electron     640.0000008 magnetization 
 augmentation part      141.1316756 magnetization 

 Broyden mixing:
  rms(total) = 0.44556E+00    rms(broyden)= 0.44547E+00
  rms(prec ) = 0.48025E+00
  weight for this iteration     100.00

 eigenvalues of (default mixing * dielectric matrix)
  average eigenvalue GAMMA=   1.4145
  2.4624  0.8905  0.8905

 Free energy of the ion-electron system (eV)
  ---------------------------------------------------
  alpha Z        PSCENC =       871.83850952
  Ewald energy   TEWEN  =    285726.66937450
  -Hartree energ DENC   =   -340663.79479263
  -exchange      EXHF   =         0.00000000
  -V(xc)+E(xc)   XCENC  =      3048.20190225
  PAW double counting   =     66262.56458389   -66252.56527424
  entropy T*S    EENTRO =        -0.00000000
  eigenvalues    EBANDS =    -13797.01370298
  atomic energy  EATOM  =     64207.43592568
  Solvation  Ediel_sol  =         0.00000000
  ---------------------------------------------------
  free energy    TOTEN  =      -596.66347401 eV

  energy without entropy =     -596.66347401  energy(sigma->0) =     -596.66347401


--------------------------------------------------------------------------------------------------------




--------------------------------------- Iteration      1(   9)  ---------------------------------------


    POTLOK:  cpu time    0.3956: real time    0.4077
    SETDIJ:  cpu time    0.4143: real time    0.4143
     EDDAV:  cpu time   57.1569: real time   57.1594
       DOS:  cpu time    0.0007: real time    0.0007
    CHARGE:  cpu time    3.6102: real time    3.6102
    MIXING:  cpu time    0.0250: real time    0.0250
    --------------------------------------------
      LOOP:  cpu time   61.6028: real time   61.6173

 eigenvalue-minimisations  :  5448
 total energy-change (2. order) : 0.5084522E+00  (-0.2593204E+00)
 number of electron     640.0000008 magnetization 
 augmentation part      141.4994965 magnetization 

 Broyden mixing:
  rms(total) = 0.22455E+00    rms(broyden)= 0.22454E+00
  rms(prec ) = 0.24282E+00
  weight for this iteration     100.00

 eigenvalues of (default mixing * dielectric matrix)
  average eigenvalue GAMMA=   1.2470
  2.1193  1.0941  0.8874  0.8874

 Free energy of the ion-electron system (eV)
  ---------------------------------------------------
  alpha Z        PSCENC =       871.83850952
  Ewald energy   TEWEN  =    285726.66937450
  -Hartree energ DENC   =   -340773.35419674
  -exchange      EXHF   =         0.00000000
  -V(xc)+E(xc)   XCENC  =      3050.19811380
  PAW double counting   =     66706.88996844   -66700.15856158
  entropy T*S    EENTRO =        -0.00000000
  eigenvalues    EBANDS =    -13685.67415546
  atomic energy  EATOM  =     64207.43592568
  Solvation  Ediel_sol  =         0.00000000
  ---------------------------------------------------
  free energy    TOTEN  =      -596.15502183 eV

  energy without entropy =     -596.15502183  energy(sigma->0) =     -596.15502183


--------------------------------------------------------------------------------------------------------




--------------------------------------- Iteration      1(  10)  ---------------------------------------


    POTLOK:  cpu time    0.3918: real time    0.4019
    SETDIJ:  cpu time    0.4142: real time    0.4142
     EDDAV:  cpu time   62.1030: real time   62.1060
       DOS:  cpu time    0.0008: real time    0.0008
    CHARGE:  cpu time    3.6058: real time    3.6057
    MIXING:  cpu time    0.0243: real time    0.0243
    --------------------------------------------
      LOOP:  cpu time   66.5398: real time   66.5528

 eigenvalue-minimisations  :  6032
 total energy-change (2. order) : 0.4080539E-01  (-0.2999625E-01)
 number of electron     640.0000008 magnetization 
 augmentation part      141.3382301 magnetization 

 Broyden mixing:
  rms(total) = 0.12040E+00    rms(broyden)= 0.12040E+00
  rms(prec ) = 0.14472E+00
  weight for this iteration     100.00

 eigenvalues of (default mixing * dielectric matrix)
  average eigenvalue GAMMA=   1.4334
  2.3446  2.3446  0.9016  0.9016  0.6749

 Free energy of the ion-electron system (eV)
  ---------------------------------------------------
  alpha Z        PSCENC =       871.83850952
  Ewald energy   TEWEN  =    285726.66937450
  -Hartree energ DENC   =   -340835.99919756
  -exchange      EXHF   =         0.00000000
  -V(xc)+E(xc)   XCENC  =      3051.55656802
  PAW double counting   =     66112.90234404   -66105.09285709
  entropy T*S    EENTRO =        -0.00000000
  eigenvalues    EBANDS =    -13625.42488355
  atomic energy  EATOM  =     64207.43592568
  Solvation  Ediel_sol  =         0.00000000
  ---------------------------------------------------
  free energy    TOTEN  =      -596.11421644 eV

  energy without entropy =     -596.11421644  energy(sigma->0) =     -596.11421644


--------------------------------------------------------------------------------------------------------




--------------------------------------- Iteration      1(  11)  ---------------------------------------


    POTLOK:  cpu time    0.3745: real time    0.3845
    SETDIJ:  cpu time    0.4143: real time    0.4143
     EDDAV:  cpu time   58.3198: real time   58.3205
       DOS:  cpu time    0.0005: real time    0.0005
    CHARGE:  cpu time    3.6576: real time    3.6575
    MIXING:  cpu time    0.0233: real time    0.0233
    --------------------------------------------
      LOOP:  cpu time   62.7901: real time   62.8008

 eigenvalue-minimisations  :  5592
 total energy-change (2. order) : 0.1247914E+00  (-0.1699713E-01)
 number of electron     640.0000008 magnetization 
 augmentation part      141.2347745 magnetization 

 Broyden mixing:
  rms(total) = 0.79029E-01    rms(broyden)= 0.79026E-01
  rms(prec ) = 0.94015E-01
  weight for this iteration     100.00

 eigenvalues of (default mixing * dielectric matrix)
  average eigenvalue GAMMA=   1.3711
  2.5382  2.0979  1.0185  0.9279  0.9279  0.7161

 Free energy of the ion-electron system (eV)
  ---------------------------------------------------
  alpha Z        PSCENC =       871.83850952
  Ewald energy   TEWEN  =    285726.66937450
  -Hartree energ DENC   =   -341002.70496704
  -exchange      EXHF   =         0.00000000
  -V(xc)+E(xc)   XCENC  =      3053.18828504
  PAW double counting   =     66034.40208434   -66026.67086429
  entropy T*S    EENTRO =        -0.00000000
  eigenvalues    EBANDS =    -13460.14777278
  atomic energy  EATOM  =     64207.43592568
  Solvation  Ediel_sol  =         0.00000000
  ---------------------------------------------------
  free energy    TOTEN  =      -595.98942502 eV

  energy without entropy =     -595.98942502  energy(sigma->0) =     -595.98942502


--------------------------------------------------------------------------------------------------------




--------------------------------------- Iteration      1(  12)  ---------------------------------------


    POTLOK:  cpu time    0.3812: real time    0.3916
    SETDIJ:  cpu time    0.4128: real time    0.4149
     EDDAV:  cpu time   60.4329: real time   60.4336
       DOS:  cpu time    0.0007: real time    0.0007
    CHARGE:  cpu time    3.6481: real time    3.6481
    MIXING:  cpu time    0.0258: real time    0.0258
    --------------------------------------------
      LOOP:  cpu time   64.9015: real time   64.9147

 eigenvalue-minimisations  :  5840
 total energy-change (2. order) : 0.2880372E-01  (-0.4781866E-02)
 number of electron     640.0000008 magnetization 
 augmentation part      141.3057296 magnetization 

 Broyden mixing:
  rms(total) = 0.33931E-01    rms(broyden)= 0.33930E-01
  rms(prec ) = 0.51705E-01
  weight for this iteration     100.00

 eigenvalues of (default mixing * dielectric matrix)
  average eigenvalue GAMMA=   1.4146
  2.5236  2.5236  1.1857  1.1857  0.9057  0.9057  0.6719

 Free energy of the ion-electron system (eV)
  ---------------------------------------------------
  alpha Z        PSCENC =       871.83850952
  Ewald energy   TEWEN  =    285726.66937450
  -Hartree energ DENC   =   -341055.80404806
  -exchange      EXHF   =         0.00000000
  -V(xc)+E(xc)   XCENC  =      3053.22675583
  PAW double counting   =     66213.85012636   -66206.55011753
  entropy T*S    EENTRO =        -0.00000000
  eigenvalues    EBANDS =    -13406.62714760
  atomic energy  EATOM  =     64207.43592568
  Solvation  Ediel_sol  =         0.00000000
  ---------------------------------------------------
  free energy    TOTEN  =      -595.96062130 eV

  energy without entropy =     -595.96062130  energy(sigma->0) =     -595.96062130


--------------------------------------------------------------------------------------------------------




--------------------------------------- Iteration      1(  13)  ---------------------------------------


    POTLOK:  cpu time    0.3725: real time    0.3838
    SETDIJ:  cpu time    0.4139: real time    0.4139
     EDDAV:  cpu time   58.6562: real time   58.6572
       DOS:  cpu time    0.0006: real time    0.0005
    CHARGE:  cpu time    3.5937: real time    3.5937
    MIXING:  cpu time    0.0260: real time    0.0260
    --------------------------------------------
      LOOP:  cpu time   63.0628: real time   63.0751

 eigenvalue-minimisations  :  5624
 total energy-change (2. order) : 0.1085354E-01  (-0.3984188E-02)
 number of electron     640.0000008 magnetization 
 augmentation part      141.2496380 magnetization 

 Broyden mixing:
  rms(total) = 0.30923E-01    rms(broyden)= 0.30920E-01
  rms(prec ) = 0.42092E-01
  weight for this iteration     100.00

 eigenvalues of (default mixing * dielectric matrix)
  average eigenvalue GAMMA=   1.3617
  2.7863  2.4555  1.2337  1.2337  0.8821  0.8821  0.7589  0.6610

 Free energy of the ion-electron system (eV)
  ---------------------------------------------------
  alpha Z        PSCENC =       871.83850952
  Ewald energy   TEWEN  =    285726.66937450
  -Hartree energ DENC   =   -341126.82501304
  -exchange      EXHF   =         0.00000000
  -V(xc)+E(xc)   XCENC  =      3053.48983458
  PAW double counting   =     66139.81389629   -66132.14186128
  entropy T*S    EENTRO =        -0.00000000
  eigenvalues    EBANDS =    -13336.23043402
  atomic energy  EATOM  =     64207.43592568
  Solvation  Ediel_sol  =         0.00000000
  ---------------------------------------------------
  free energy    TOTEN  =      -595.94976776 eV

  energy without entropy =     -595.94976776  energy(sigma->0) =     -595.94976776


--------------------------------------------------------------------------------------------------------




--------------------------------------- Iteration      1(  14)  ---------------------------------------


    POTLOK:  cpu time    0.4040: real time    0.4132
    SETDIJ:  cpu time    0.4271: real time    0.4271
     EDDAV:  cpu time   59.4260: real time   59.4270
       DOS:  cpu time    0.0006: real time    0.0006
    CHARGE:  cpu time    3.6243: real time    3.6243
    MIXING:  cpu time    0.0261: real time    0.0261
    --------------------------------------------
      LOOP:  cpu time   63.9081: real time   63.9182

 eigenvalue-minimisations  :  5720
 total energy-change (2. order) : 0.3949322E-02  (-0.1139051E-02)
 number of electron     640.0000008 magnetization 
 augmentation part      141.2794578 magnetization 

 Broyden mixing:
  rms(total) = 0.16292E-01    rms(broyden)= 0.16291E-01
  rms(prec ) = 0.26445E-01
  weight for this iteration     100.00

 eigenvalues of (default mixing * dielectric matrix)
  average eigenvalue GAMMA=   1.4523
  2.8633  2.8633  1.5565  1.5565  0.9390  0.9390  0.8459  0.8459  0.6617

 Free energy of the ion-electron system (eV)
  ---------------------------------------------------
  alpha Z        PSCENC =       871.83850952
  Ewald energy   TEWEN  =    285726.66937450
  -Hartree energ DENC   =   -341168.08430409
  -exchange      EXHF   =         0.00000000
  -V(xc)+E(xc)   XCENC  =      3053.60002711
  PAW double counting   =     66170.84576234   -66163.31577240
  entropy T*S    EENTRO =        -0.00000000
  eigenvalues    EBANDS =    -13294.93534109
  atomic energy  EATOM  =     64207.43592568
  Solvation  Ediel_sol  =         0.00000000
  ---------------------------------------------------
  free energy    TOTEN  =      -595.94581843 eV

  energy without entropy =     -595.94581843  energy(sigma->0) =     -595.94581843


--------------------------------------------------------------------------------------------------------




--------------------------------------- Iteration      1(  15)  ---------------------------------------


    POTLOK:  cpu time    0.3736: real time    0.3831
    SETDIJ:  cpu time    0.4140: real time    0.4139
     EDDAV:  cpu time   59.4860: real time   59.4882
       DOS:  cpu time    0.0005: real time    0.0005
    CHARGE:  cpu time    3.6827: real time    3.6827
    MIXING:  cpu time    0.0262: real time    0.0262
    --------------------------------------------
      LOOP:  cpu time   63.9830: real time   63.9946

 eigenvalue-minimisations  :  5720
 total energy-change (2. order) :-0.5339316E-02  (-0.1119400E-02)
 number of electron     640.0000008 magnetization 
 augmentation part      141.2798925 magnetization 

 Broyden mixing:
  rms(total) = 0.13610E-01    rms(broyden)= 0.13606E-01
  rms(prec ) = 0.18513E-01
  weight for this iteration     100.00

 eigenvalues of (default mixing * dielectric matrix)
  average eigenvalue GAMMA=   1.4835
  3.9420  2.7339  1.9042  1.0289  1.0289  1.0823  0.8731  0.8731  0.6370  0.7312

 Free energy of the ion-electron system (eV)
  ---------------------------------------------------
  alpha Z        PSCENC =       871.83850952
  Ewald energy   TEWEN  =    285726.66937450
  -Hartree energ DENC   =   -341225.25629632
  -exchange      EXHF   =         0.00000000
  -V(xc)+E(xc)   XCENC  =      3053.73054801
  PAW double counting   =     66133.41336731   -66125.82880001
  entropy T*S    EENTRO =        -0.00000000
  eigenvalues    EBANDS =    -13237.95378644
  atomic energy  EATOM  =     64207.43592568
  Solvation  Ediel_sol  =         0.00000000
  ---------------------------------------------------
  free energy    TOTEN  =      -595.95115775 eV

  energy without entropy =     -595.95115775  energy(sigma->0) =     -595.95115775


--------------------------------------------------------------------------------------------------------




--------------------------------------- Iteration      1(  16)  ---------------------------------------


    POTLOK:  cpu time    0.4315: real time    0.4423
    SETDIJ:  cpu time    0.4488: real time    0.4488
     EDDAV:  cpu time   56.6699: real time   56.6712
       DOS:  cpu time    0.0007: real time    0.0006
    CHARGE:  cpu time    3.6629: real time    3.6629
    MIXING:  cpu time    0.0290: real time    0.0290
    --------------------------------------------
      LOOP:  cpu time   61.2428: real time   61.2548

 eigenvalue-minimisations  :  5384
 total energy-change (2. order) :-0.3545990E-02  (-0.2491413E-03)
 number of electron     640.0000008 magnetization 
 augmentation part      141.2824651 magnetization 

 Broyden mixing:
  rms(total) = 0.89399E-02    rms(broyden)= 0.89394E-02
  rms(prec ) = 0.12096E-01
  weight for this iteration     100.00

 eigenvalues of (default mixing * dielectric matrix)
  average eigenvalue GAMMA=   1.5008
  4.2476  2.6763  2.1698  1.1288  1.1288  1.0027  1.0027  0.9052  0.9052  0.6399
  0.7024

 Free energy of the ion-electron system (eV)
  ---------------------------------------------------
  alpha Z        PSCENC =       871.83850952
  Ewald energy   TEWEN  =    285726.66937450
  -Hartree energ DENC   =   -341256.83555511
  -exchange      EXHF   =         0.00000000
  -V(xc)+E(xc)   XCENC  =      3053.77106853
  PAW double counting   =     66141.44175704   -66133.88059163
  entropy T*S    EENTRO =        -0.00000000
  eigenvalues    EBANDS =    -13206.39519227
  atomic energy  EATOM  =     64207.43592568
  Solvation  Ediel_sol  =         0.00000000
  ---------------------------------------------------
  free energy    TOTEN  =      -595.95470374 eV

  energy without entropy =     -595.95470374  energy(sigma->0) =     -595.95470374


--------------------------------------------------------------------------------------------------------




--------------------------------------- Iteration      1(  17)  ---------------------------------------


    POTLOK:  cpu time    0.4434: real time    0.4536
    SETDIJ:  cpu time    0.4559: real time    0.4563
     EDDAV:  cpu time   59.3381: real time   59.3381
       DOS:  cpu time    0.0006: real time    0.0006
    CHARGE:  cpu time    3.6206: real time    3.6206
    MIXING:  cpu time    0.0267: real time    0.0267
    --------------------------------------------
      LOOP:  cpu time   63.8854: real time   63.8960

 eigenvalue-minimisations  :  5688
 total energy-change (2. order) :-0.4901492E-02  (-0.3500824E-03)
 number of electron     640.0000008 magnetization 
 augmentation part      141.2885037 magnetization 

 Broyden mixing:
  rms(total) = 0.10672E-01    rms(broyden)= 0.10669E-01
  rms(prec ) = 0.12231E-01
  weight for this iteration     100.00

 eigenvalues of (default mixing * dielectric matrix)
  average eigenvalue GAMMA=   1.5893
  5.2914  2.8634  2.0119  2.0119  0.9885  0.9885  0.9780  0.9780  0.8414  0.8414
  0.6826  0.5953

 Free energy of the ion-electron system (eV)
  ---------------------------------------------------
  alpha Z        PSCENC =       871.83850952
  Ewald energy   TEWEN  =    285726.66937450
  -Hartree energ DENC   =   -341275.00368129
  -exchange      EXHF   =         0.00000000
  -V(xc)+E(xc)   XCENC  =      3053.80208033
  PAW double counting   =     66151.56928329   -66144.08513221
  entropy T*S    EENTRO =        -0.00000000
  eigenvalues    EBANDS =    -13188.18596505
  atomic energy  EATOM  =     64207.43592568
  Solvation  Ediel_sol  =         0.00000000
  ---------------------------------------------------
  free energy    TOTEN  =      -595.95960523 eV

  energy without entropy =     -595.95960523  energy(sigma->0) =     -595.95960523


--------------------------------------------------------------------------------------------------------




--------------------------------------- Iteration      1(  18)  ---------------------------------------


    POTLOK:  cpu time    0.4325: real time    0.4425
    SETDIJ:  cpu time    0.4324: real time    0.4324
     EDDAV:  cpu time   57.3493: real time   57.3527
       DOS:  cpu time    0.0006: real time    0.0006
    CHARGE:  cpu time    3.6781: real time    3.6782
    MIXING:  cpu time    0.0271: real time    0.0271
    --------------------------------------------
      LOOP:  cpu time   61.9201: real time   61.9336

 eigenvalue-minimisations  :  5464
 total energy-change (2. order) :-0.4000824E-02  (-0.9689631E-04)
 number of electron     640.0000008 magnetization 
 augmentation part      141.2754998 magnetization 

 Broyden mixing:
  rms(total) = 0.63377E-02    rms(broyden)= 0.63375E-02
  rms(prec ) = 0.73252E-02
  weight for this iteration     100.00

 eigenvalues of (default mixing * dielectric matrix)
  average eigenvalue GAMMA=   1.6075
  6.0362  2.7158  2.5484  1.7580  0.9419  0.9419  1.0404  1.0404  0.9032  0.9032
  0.7908  0.6430  0.6346

 Free energy of the ion-electron system (eV)
  ---------------------------------------------------
  alpha Z        PSCENC =       871.83850952
  Ewald energy   TEWEN  =    285726.66937450
  -Hartree energ DENC   =   -341292.16489161
  -exchange      EXHF   =         0.00000000
  -V(xc)+E(xc)   XCENC  =      3053.85982432
  PAW double counting   =     66135.15010498   -66127.65136965
  entropy T*S    EENTRO =        -0.00000000
  eigenvalues    EBANDS =    -13171.10108380
  atomic energy  EATOM  =     64207.43592568
  Solvation  Ediel_sol  =         0.00000000
  ---------------------------------------------------
  free energy    TOTEN  =      -595.96360606 eV

  energy without entropy =     -595.96360606  energy(sigma->0) =     -595.96360606


--------------------------------------------------------------------------------------------------------




--------------------------------------- Iteration      1(  19)  ---------------------------------------


    POTLOK:  cpu time    0.3847: real time    0.3942
    SETDIJ:  cpu time    0.4148: real time    0.4148
     EDDAV:  cpu time   59.6159: real time   59.6171
       DOS:  cpu time    0.0007: real time    0.0006
    CHARGE:  cpu time    3.6834: real time    3.6834
    MIXING:  cpu time    0.0276: real time    0.0276
    --------------------------------------------
      LOOP:  cpu time   64.1270: real time   64.1378

 eigenvalue-minimisations  :  5728
 total energy-change (2. order) :-0.1640705E-02  (-0.5477108E-04)
 number of electron     640.0000008 magnetization 
 augmentation part      141.2768973 magnetization 

 Broyden mixing:
  rms(total) = 0.21465E-02    rms(broyden)= 0.21436E-02
  rms(prec ) = 0.33278E-02
  weight for this iteration     100.00

 eigenvalues of (default mixing * dielectric matrix)
  average eigenvalue GAMMA=   1.6276
  6.5349  3.0663  2.4190  1.9132  0.9824  0.9824  1.1345  0.9867  0.9867  0.8499
  0.8499  0.7989  0.6699  0.6118

 Free energy of the ion-electron system (eV)
  ---------------------------------------------------
  alpha Z        PSCENC =       871.83850952
  Ewald energy   TEWEN  =    285726.66937450
  -Hartree energ DENC   =   -341297.60997440
  -exchange      EXHF   =         0.00000000
  -V(xc)+E(xc)   XCENC  =      3053.86021073
  PAW double counting   =     66140.51529507   -66133.04053464
  entropy T*S    EENTRO =        -0.00000000
  eigenvalues    EBANDS =    -13165.63405322
  atomic energy  EATOM  =     64207.43592568
  Solvation  Ediel_sol  =         0.00000000
  ---------------------------------------------------
  free energy    TOTEN  =      -595.96524676 eV

  energy without entropy =     -595.96524676  energy(sigma->0) =     -595.96524676


--------------------------------------------------------------------------------------------------------




--------------------------------------- Iteration      1(  20)  ---------------------------------------


    POTLOK:  cpu time    0.3722: real time    0.3815
    SETDIJ:  cpu time    0.4136: real time    0.4136
     EDDAV:  cpu time   56.6101: real time   56.6110
       DOS:  cpu time    0.0006: real time    0.0006
    CHARGE:  cpu time    3.6204: real time    3.6204
    MIXING:  cpu time    0.0274: real time    0.0274
    --------------------------------------------
      LOOP:  cpu time   61.0443: real time   61.0545

 eigenvalue-minimisations  :  5376
 total energy-change (2. order) :-0.2679813E-02  (-0.1829559E-04)
 number of electron     640.0000008 magnetization 
 augmentation part      141.2783099 magnetization 

 Broyden mixing:
  rms(total) = 0.23287E-02    rms(broyden)= 0.23279E-02
  rms(prec ) = 0.29395E-02
  weight for this iteration     100.00

 eigenvalues of (default mixing * dielectric matrix)
  average eigenvalue GAMMA=   1.6529
  6.8879  3.2693  2.4751  2.0838  1.4486  0.9469  0.9469  1.0650  0.9777  0.9777
  0.8572  0.8572  0.7233  0.6716  0.6050

 Free energy of the ion-electron system (eV)
  ---------------------------------------------------
  alpha Z        PSCENC =       871.83850952
  Ewald energy   TEWEN  =    285726.66937450
  -Hartree energ DENC   =   -341301.74148255
  -exchange      EXHF   =         0.00000000
  -V(xc)+E(xc)   XCENC  =      3053.85588355
  PAW double counting   =     66136.62523563   -66129.14341771
  entropy T*S    EENTRO =        -0.00000000
  eigenvalues    EBANDS =    -13161.50795521
  atomic energy  EATOM  =     64207.43592568
  Solvation  Ediel_sol  =         0.00000000
  ---------------------------------------------------
  free energy    TOTEN  =      -595.96792657 eV

  energy without entropy =     -595.96792657  energy(sigma->0) =     -595.96792657


--------------------------------------------------------------------------------------------------------




--------------------------------------- Iteration      1(  21)  ---------------------------------------


    POTLOK:  cpu time    0.3893: real time    0.3989
    SETDIJ:  cpu time    0.4174: real time    0.4174
     EDDAV:  cpu time   50.9525: real time   50.9522
       DOS:  cpu time    0.0007: real time    0.0006
    CHARGE:  cpu time    3.6163: real time    3.6163
    MIXING:  cpu time    0.0270: real time    0.0270
    --------------------------------------------
      LOOP:  cpu time   55.4031: real time   55.4124

 eigenvalue-minimisations  :  4704
 total energy-change (2. order) :-0.2418732E-02  (-0.9454415E-05)
 number of electron     640.0000008 magnetization 
[...]
    -6.564311700 11.369721380  0.000000000     0.000000000  0.087952903  0.000000000
     0.000000000  0.000000000 26.828094240     0.000000000  0.000000000  0.037274358

  length of vectors
    13.128623400 13.128623399 26.828094240     0.087952903  0.087952903  0.037274358


 FORCES acting on ions
    electron-ion (+dipol)            ewald-force                    non-local-force                 convergence-correction
 -----------------------------------------------------------------------------------------------
   -.141E+02 -.198E+02 0.130E+04   0.140E+02 0.206E+02 -.129E+04   0.446E+00 0.149E-01 -.719E+01   -.101E-04 0.291E-04 -.639E-04
   0.153E+02 0.524E+02 0.119E+04   -.154E+02 -.529E+02 -.118E+04   0.239E+00 -.605E-01 -.581E+01   0.379E-04 -.427E-04 -.446E-04
   -.491E+01 -.186E+02 0.121E+04   0.464E+01 0.183E+02 -.120E+04   0.573E+00 0.412E+00 -.562E+01   -.101E-04 0.727E-04 -.915E-04
   -.192E+02 0.134E+02 0.130E+04   0.181E+02 -.145E+02 -.130E+04   0.964E+00 0.187E+00 -.551E+01   0.509E-04 0.709E-05 -.108E-03
   0.606E+02 -.595E+02 0.127E+04   -.620E+02 0.592E+02 -.126E+04   0.800E-02 0.107E+01 -.649E+01   -.221E-04 -.234E-04 -.125E-03
   -.527E+02 -.439E+02 0.123E+04   0.519E+02 0.426E+02 -.123E+04   0.120E+01 0.181E+01 -.527E+01   -.178E-04 0.409E-04 -.377E-04
   0.308E+02 -.190E+02 0.122E+04   -.307E+02 0.190E+02 -.121E+04   -.747E+00 0.307E+00 -.505E+01   -.113E-04 -.605E-04 -.811E-04
   -.323E+02 0.259E+02 0.116E+04   0.314E+02 -.268E+02 -.115E+04   0.944E+00 0.285E+00 -.558E+01   -.570E-04 -.575E-04 -.150E-03
   -.374E+02 0.375E+01 0.123E+04   0.380E+02 -.369E+01 -.123E+04   -.669E-01 -.728E-01 -.648E+01   -.445E-04 -.130E-05 -.206E-03
   0.414E+02 -.324E+02 0.125E+04   -.406E+02 0.346E+02 -.125E+04   -.605E+00 -.594E+00 -.422E+01   0.179E-04 0.136E-04 -.150E-03
   -.781E+02 0.400E+02 0.134E+04   0.784E+02 -.386E+02 -.133E+04   0.316E+00 -.954E+00 -.692E+01   0.285E-05 0.105E-05 -.158E-03
   -.131E+02 -.518E+02 0.122E+04   0.144E+02 0.514E+02 -.121E+04   -.418E+00 0.652E+00 -.636E+01   0.169E-04 0.305E-04 -.159E-03
   -.409E+02 0.487E+01 0.141E+04   0.411E+02 -.396E+01 -.140E+04   0.103E+01 -.553E+00 -.455E+01   0.386E-04 -.214E-04 -.184E-03
   -.190E+02 0.709E+01 0.131E+04   0.197E+02 -.702E+01 -.131E+04   -.108E+00 -.108E+00 -.652E+01   -.107E-04 0.664E-04 -.162E-03
   0.484E+02 -.457E+02 0.112E+04   -.496E+02 0.460E+02 -.111E+04   0.148E-01 0.210E+00 -.479E+01   0.335E-04 0.268E-05 -.991E-04
   -.469E+01 0.435E+02 0.141E+04   0.417E+01 -.447E+02 -.140E+04   0.384E+00 0.369E+00 -.574E+01   -.326E-04 0.104E-04 -.107E-03
   -.526E+00 -.464E+02 -.125E+04   0.220E+00 0.469E+02 0.124E+04   -.177E+00 0.121E+00 0.595E+01   0.217E-04 0.397E-04 0.554E-04
   0.149E+02 0.214E+02 -.129E+04   -.144E+02 -.213E+02 0.128E+04   -.121E+01 -.739E-01 0.555E+01   -.299E-05 0.462E-04 0.369E-04
   0.221E+02 -.306E+02 -.127E+04   -.226E+02 0.312E+02 0.126E+04   -.136E-02 0.224E+00 0.525E+01   0.588E-04 0.319E-04 0.422E-04
   0.259E+02 -.229E+00 -.123E+04   -.256E+02 -.111E+01 0.123E+04   -.367E+00 0.694E+00 0.542E+01   0.218E-04 -.280E-04 0.518E-04
   0.841E+01 -.159E+02 -.132E+04   -.827E+01 0.152E+02 0.132E+04   -.191E+00 0.408E+00 0.577E+01   -.486E-04 0.243E-04 0.152E-03
   0.221E+02 -.363E+01 -.127E+04   -.236E+02 0.300E+01 0.127E+04   -.527E-01 0.902E-01 0.670E+01   -.498E-04 0.780E-05 0.129E-03
   -.489E+02 0.509E+01 -.126E+04   0.489E+02 -.581E+01 0.125E+04   0.270E+00 0.457E+00 0.626E+01   -.827E-04 -.857E-04 0.974E-04
   -.121E+02 -.529E+02 -.141E+04   0.984E+01 0.531E+02 0.140E+04   0.858E+00 0.793E+00 0.517E+01   -.335E-04 0.124E-05 0.159E-03
   0.340E+01 -.267E+02 -.121E+04   -.423E+01 0.249E+02 0.120E+04   0.319E+00 0.128E+01 0.576E+01   0.478E-04 -.185E-04 0.186E-03
   0.442E+01 -.106E+02 -.130E+04   -.506E+01 0.121E+02 0.130E+04   0.447E+00 -.382E+00 0.571E+01   -.240E-04 0.214E-04 0.179E-03
   -.117E+02 0.548E+01 -.126E+04   0.107E+02 -.561E+01 0.126E+04   0.102E+01 0.480E-01 0.517E+01   0.774E-04 -.239E-04 0.118E-03
   0.950E+00 0.241E+02 -.122E+04   -.699E-01 -.255E+02 0.121E+04   -.133E-01 0.481E+00 0.734E+01   0.536E-04 0.443E-04 0.142E-03
   0.199E+02 -.426E+02 -.114E+04   -.182E+02 0.440E+02 0.113E+04   -.980E+00 -.126E+00 0.435E+01   -.487E-04 0.298E-04 0.100E-03
   -.228E+02 0.537E+02 -.124E+04   0.235E+02 -.529E+02 0.123E+04   0.179E+00 -.104E+01 0.608E+01   0.354E-04 -.113E-04 0.176E-03
   -.271E+01 0.894E+01 -.129E+04   0.388E+01 -.797E+01 0.128E+04   -.263E+00 -.573E+00 0.542E+01   -.388E-04 0.199E-05 0.123E-03
   -.799E+01 0.365E+02 -.123E+04   0.913E+01 -.365E+02 0.123E+04   -.358E+00 -.294E+00 0.650E+01   -.134E-04 -.387E-04 0.105E-03
   -.306E+02 0.695E+01 -.155E+04   0.313E+02 -.834E+01 0.157E+04   -.210E+00 0.131E+01 -.147E+02   -.233E-05 -.874E-05 0.109E-04
   0.233E+01 0.483E+02 -.160E+04   -.112E+01 -.513E+02 0.161E+04   -.146E+01 0.208E+01 -.166E+02   -.150E-04 -.248E-05 0.138E-04
   0.401E+01 -.339E+01 -.156E+04   -.316E+01 0.335E+01 0.157E+04   -.910E+00 -.166E+00 -.141E+02   -.105E-04 -.569E-05 0.178E-04
   0.715E+01 0.675E+01 -.158E+04   -.715E+01 -.853E+01 0.160E+04   -.105E+00 0.181E+01 -.161E+02   -.781E-05 -.622E-05 0.112E-04
   0.182E+02 -.233E+02 -.158E+04   -.196E+02 0.253E+02 0.160E+04   0.159E+01 -.196E+01 -.158E+02   0.211E-05 0.526E-06 -.640E-05
   -.479E+02 0.138E+02 -.161E+04   0.497E+02 -.142E+02 0.162E+04   -.122E+01 0.729E+00 -.165E+02   0.102E-04 0.147E-04 -.110E-04
   -.144E+02 0.209E+02 -.163E+04   0.139E+02 -.255E+02 0.165E+04   0.681E+00 0.458E+01 -.173E+02   -.296E-05 -.303E-05 0.986E-05
   0.253E+01 -.142E+02 -.157E+04   -.218E+01 0.134E+02 0.158E+04   -.263E+00 0.139E+01 -.139E+02   -.330E-05 -.451E-05 0.730E-06
   -.424E+01 0.965E+01 -.160E+04   0.454E+01 -.126E+02 0.162E+04   -.635E-01 0.312E+01 -.177E+02   0.310E-06 0.205E-04 0.132E-04
   0.203E+02 0.912E+01 -.163E+04   -.202E+02 -.860E+01 0.165E+04   -.355E+00 -.820E+00 -.178E+02   0.145E-04 0.449E-05 0.803E-05
   0.143E+02 -.230E+02 -.155E+04   -.164E+02 0.247E+02 0.157E+04   0.170E+01 -.144E+01 -.142E+02   -.915E-06 0.120E-04 0.406E-04
   -.245E+02 0.226E+01 -.163E+04   0.254E+02 -.992E+00 0.164E+04   -.509E+00 -.157E+01 -.174E+02   0.752E-05 -.669E-06 0.546E-05
   0.189E+02 -.268E+02 -.159E+04   -.189E+02 0.284E+02 0.161E+04   -.623E+00 -.123E+01 -.184E+02   -.224E-05 0.375E-05 0.372E-05
   0.208E+02 0.306E+00 -.160E+04   -.221E+02 0.122E+01 0.161E+04   0.597E+00 -.147E+01 -.174E+02   -.311E-05 0.118E-05 0.141E-04
   0.134E+02 -.391E+02 -.160E+04   -.135E+02 0.419E+02 0.161E+04   -.327E+00 -.254E+01 -.168E+02   0.156E-06 -.543E-05 0.178E-05
   0.141E+02 0.491E+02 -.155E+04   -.156E+02 -.517E+02 0.157E+04   0.117E+01 0.163E+01 -.164E+02   -.129E-04 -.155E-04 0.898E-06
   0.287E+00 -.263E+02 0.162E+04   -.112E+01 0.283E+02 -.164E+04   0.104E+01 -.209E+01 0.167E+02   0.352E-04 -.162E-04 0.310E-04
   0.333E+02 0.303E+02 0.159E+04   -.377E+02 -.321E+02 -.161E+04   0.384E+01 0.148E+01 0.164E+02   -.138E-05 0.931E-05 0.121E-04
   0.188E+02 -.284E+02 0.155E+04   -.202E+02 0.303E+02 -.157E+04   0.143E+01 -.109E+01 0.164E+02   0.114E-04 0.276E-04 0.378E-04
   0.169E+02 0.925E+01 0.160E+04   -.184E+02 -.101E+02 -.162E+04   0.105E+01 0.814E+00 0.173E+02   0.635E-05 0.464E-05 0.335E-04
   -.238E+02 0.811E+01 0.153E+04   0.257E+02 -.112E+02 -.155E+04   -.142E+01 0.337E+01 0.150E+02   -.176E-05 0.133E-04 0.557E-05
   0.176E+02 0.223E+02 0.154E+04   -.187E+02 -.240E+02 -.156E+04   0.110E+01 0.901E+00 0.148E+02   0.101E-04 -.236E-04 0.874E-05
   -.382E+02 0.337E+02 0.162E+04   0.390E+02 -.361E+02 -.164E+04   -.219E+00 0.199E+01 0.183E+02   -.155E-04 0.176E-04 0.598E-04
   0.204E+02 -.153E+02 0.159E+04   -.225E+02 0.141E+02 -.161E+04   0.184E+01 0.140E+01 0.181E+02   -.199E-04 0.332E-05 0.162E-04
   0.589E+02 0.571E+02 0.161E+04   -.636E+02 -.622E+02 -.163E+04   0.351E+01 0.456E+01 0.164E+02   0.959E-05 0.251E-04 0.314E-04
   -.343E+02 0.363E+02 0.162E+04   0.376E+02 -.369E+02 -.163E+04   -.262E+01 0.126E+00 0.178E+02   -.663E-05 -.131E-04 0.261E-04
   0.566E+02 -.591E+02 0.158E+04   -.556E+02 0.614E+02 -.160E+04   -.195E+01 -.200E+01 0.158E+02   -.704E-05 -.182E-04 -.536E-05
   0.382E+01 0.440E+01 0.161E+04   -.651E+01 -.380E+01 -.162E+04   0.269E+01 -.552E+00 0.158E+02   0.478E-06 0.226E-05 0.129E-04
   -.190E+02 -.206E+02 0.155E+04   0.200E+02 0.224E+02 -.157E+04   -.769E+00 -.120E+01 0.137E+02   -.217E-04 0.910E-05 0.171E-05
   -.217E+02 -.361E+02 0.161E+04   0.234E+02 0.406E+02 -.162E+04   -.162E+01 -.437E+01 0.158E+02   -.124E-04 -.360E-04 0.266E-04
   -.202E+02 -.691E+01 0.164E+04   0.194E+02 0.771E+01 -.166E+04   0.103E+01 -.103E+01 0.193E+02   0.146E-04 -.681E-05 0.219E-04
   0.181E+02 0.324E+02 0.157E+04   -.184E+02 -.371E+02 -.158E+04   -.190E+00 0.475E+01 0.149E+02   0.196E-04 0.159E-04 0.575E-05
   0.865E+00 0.157E+02 0.119E+02   -.930E+00 -.153E+02 -.117E+02   0.405E+00 -.163E+01 -.616E+00   0.111E-04 0.315E-05 -.551E-05
   0.226E+02 0.144E+02 0.300E+02   -.224E+02 -.142E+02 -.301E+02   -.131E+01 -.497E+00 0.937E+00   -.214E-05 0.285E-05 -.673E-05
   0.143E+02 0.106E+02 -.200E+01   -.143E+02 -.103E+02 0.201E+01   -.236E+00 -.930E+00 0.118E+00   -.208E-05 0.147E-05 -.114E-04
   -.768E+01 -.104E+02 -.124E+02   0.750E+01 0.107E+02 0.125E+02   0.116E+01 -.485E+00 -.956E-01   0.108E-04 -.228E-05 -.115E-04
   0.321E+01 -.915E+01 -.364E+01   -.326E+01 0.894E+01 0.370E+01   0.469E-01 0.109E+01 -.121E+00   -.791E-05 0.624E-05 -.216E-04
   -.286E+02 0.183E+02 -.115E+02   0.284E+02 -.184E+02 0.117E+02   0.145E+01 -.524E+00 -.643E+00   0.135E-04 -.689E-05 -.484E-05
   -.122E-01 0.599E+01 -.253E+02   0.128E+00 -.607E+01 0.256E+02   -.592E+00 0.431E+00 -.110E+01   0.107E-04 0.129E-04 -.137E-04
   -.627E+01 0.373E+01 -.455E+02   0.627E+01 -.375E+01 0.459E+02   0.682E-01 -.210E+00 -.179E+01   -.971E-05 -.290E-06 -.224E-04
   -.207E+02 0.150E+02 -.314E+02   0.204E+02 -.148E+02 0.316E+02   0.149E+01 -.500E+00 -.587E+00   0.165E-05 0.336E-05 -.275E-04
   -.108E+02 0.701E+01 -.168E+02   0.105E+02 -.688E+01 0.168E+02   0.163E+01 -.107E+01 -.287E-01   -.554E-05 -.540E-05 -.134E-04
   0.594E+01 0.743E+01 -.204E+00   -.572E+01 -.706E+01 0.237E+00   -.104E+01 -.105E+01 -.498E+00   -.106E-04 -.112E-04 0.272E-05
   -.967E+01 0.121E+01 -.626E+01   0.969E+01 -.132E+01 0.626E+01   -.725E-01 0.306E+00 0.156E-01   -.205E-05 0.146E-05 -.154E-04
   -.264E+01 -.333E+02 0.494E+02   0.249E+01 0.330E+02 -.497E+02   -.132E+00 0.206E+01 0.407E+00   -.163E-05 -.887E-05 0.304E-05
   0.625E+00 0.761E+01 0.306E+02   -.426E+00 -.735E+01 -.309E+02   -.123E+01 -.921E+00 0.154E+01   -.361E-05 -.143E-05 -.121E-04
   0.223E+02 0.118E+02 -.556E+01   -.223E+02 -.120E+02 0.527E+01   0.115E+00 0.402E+00 0.168E+01   0.515E-05 0.671E-05 -.301E-05
   0.503E+01 0.164E+02 0.422E+02   -.506E+01 -.162E+02 -.425E+02   0.295E+00 -.854E+00 0.925E+00   0.241E-05 0.938E-05 0.721E-05
 -----------------------------------------------------------------------------------------------
   -.141E+02 -.132E+02 -.178E+01   -.260E-12 -.142E-12 0.692E-11   0.141E+02 0.132E+02 0.178E+01   -.388E-04 0.140E-03 0.232E-03
 
 
 POSITION                                       TOTAL-FORCE (eV/Angst)
 -----------------------------------------------------------------------------------
     -0.08124      1.87187     12.12487         0.381438      0.793957      0.147950
     -1.66581      4.78130     12.21594         0.188111     -0.607816     -0.330681
     -3.31338      7.60124     12.20868         0.297245      0.143621     -0.408911
     -4.93471     10.52525     12.09154        -0.149771     -0.871895      0.263154
      3.33956      1.83536     12.12966        -1.460372      0.764840      0.847197
      1.57258      4.65464     12.13698         0.455043      0.527035      0.737562
      0.03870      7.50362     12.15702        -0.715258      0.308812      0.550717
     -1.63803     10.37317     12.23995         0.016063     -0.564636      0.119924
      6.51660      1.88292     12.15993         0.472549     -0.017166      0.334627
      4.95418      4.66271     12.06893         0.190386      1.621248      0.914967
      3.24931      7.54814     12.08511         0.643763      0.354983      0.398998
      1.49145     10.35846     12.18878         0.889454      0.269518     -0.187366
      9.72634      1.95428     11.88880         1.269582      0.355233      1.847692
      8.15011      4.79331     12.08298         0.567007     -0.031206     -0.009298
      6.66804      7.54554     12.27798        -1.165913      0.486388     -1.890179
      4.87839     10.40015     11.97496        -0.135947     -0.849483      1.053131
      1.64987      0.93225     14.66171        -0.482914      0.684564      0.083334
      0.07434      3.75207     14.71875        -0.682838      0.090998     -0.040209
     -1.59218      6.59248     14.72056        -0.560246      0.790160      0.057245
     -3.30830      9.49685     14.65856        -0.064252     -0.647346      0.843245
      4.90075      0.93199     14.74486        -0.050555     -0.215621      0.206852
      3.43448      3.89060     14.66402        -1.544082     -0.539679      0.698490
      1.68128      6.58685     14.68234         0.322730     -0.269539      0.239013
      0.09303      9.32171     14.87573        -1.433189      0.983611     -0.895705
      8.25492      0.97093     14.67892        -0.510680     -0.507093     -0.635354
      6.63032      3.68945     14.76356        -0.196199      1.169723     -0.934937
      4.95772      6.67437     14.72905         0.029748     -0.089691     -0.511931
      3.20825      9.54097     14.60686         0.866467     -0.979164      0.155154
     11.39610      0.90425     14.64838         0.748173      1.298308     -1.442027
      9.86561      3.82165     14.70421         0.834856     -0.203785     -1.118435
      8.14700      6.59263     14.72748         0.914763      0.405834     -0.147643
      6.47586      9.55579     14.65634         0.783416     -0.338268     -0.571173
     -0.19275      1.89163     15.75756         0.523003     -0.080120      0.467404
     -1.60607      4.88022     15.86498        -0.246698     -0.868990      0.171522
     -3.32011      7.61592     15.78539        -0.059626     -0.207255      0.255366
     -4.95294     10.46074     15.80308        -0.107917      0.035123      0.085206
      3.25548      1.91646     15.87366         0.124177     -0.003633     -0.322681
      1.55871      4.70992     15.90403         0.589129      0.258017     -0.155297
      0.03281      7.52251     15.92047         0.254705     -0.049075      0.106486
     -1.66104     10.33607     15.81048         0.081742      0.541484      0.390042
      6.53056      1.86512     15.91715         0.238822      0.173950     -0.315487
      5.13587      4.83632     16.02420        -0.261466     -0.305970     -0.970653
      3.39705      7.60846     15.75906        -0.375056      0.273719      0.595369
      1.53206     10.56179     15.97786         0.392310     -0.306462     -0.542478
      9.94666      1.82570     15.87260        -0.649338      0.390384     -0.327863
      8.37369      4.68872     15.87451        -0.708754      0.053177      0.042537
      6.64841      7.56448     15.87384        -0.414718      0.264796     -0.084521
      4.93690     10.55056     15.68768        -0.392485     -0.877073      1.112174
      1.63514      1.00819     10.89409         0.203227     -0.067122      0.391743
      0.07783      3.90443     10.99507        -0.528960     -0.299267     -0.348649
     -1.62740      6.53522     11.08697        -0.005323      0.748503     -0.346073
     -3.12071      9.49066     10.94438        -0.357092     -0.025266      0.505074
      4.86016      0.86714     11.17127         0.490460      0.282359     -1.233578
      3.25608      3.99467     11.08856        -0.034945     -0.817013     -0.840429
      1.54532      6.76857     10.89914         0.489473     -0.394458      0.339859
      0.00004      9.38441     10.99553        -0.212454      0.239745      0.257302
      8.26672      1.04048     10.88544        -1.127710     -0.548141     -0.208263
      6.40778      3.76920     10.91658         0.664586     -0.501164     -0.003270
      5.33839      6.44668     10.94617        -0.978835      0.338742      0.026772
      3.21258      9.43266     10.88825        -0.001757      0.043780      0.309231
     11.38750      0.87320     11.03866         0.226184      0.578327     -0.953538
      9.80904      3.82197     10.90403         0.051740      0.139583     -0.003977
      8.21683      6.76152     10.82618         0.254601     -0.230859      1.187640
      6.68590      9.52856     10.99985        -0.464452      0.034252     -0.180174
     -0.03971      0.13433     13.39598         0.338954     -1.269974     -0.367895
     -1.60270      2.89365     13.30447        -1.103341     -0.325196      0.791725
     -3.27594      5.76548     13.42110        -0.224837     -0.659038      0.131190
      8.12524      8.59540     13.43378         0.980797     -0.213565      0.001405
     -3.30399     11.33661     13.41394        -0.008028      0.884548     -0.055701
      1.57681      2.90201     13.44618         1.274231     -0.571548     -0.470224
      0.08168      5.66911     13.50292        -0.476554      0.356641     -0.831899
     -1.60263      8.54817     13.58743         0.064184     -0.233872     -1.353936
      6.46632      0.09402     13.47010         1.257348     -0.342467     -0.412642
      4.84297      2.90321     13.43001         1.288568     -0.936605     -0.014908
      3.42755      5.79651     13.47407        -0.820322     -0.680593     -0.465084
      1.61900      8.48974     13.44021        -0.047181      0.198912      0.016317
      3.19552     11.21745     13.34382        -0.283555      1.744667      0.088400
      8.28995      2.90592     13.29194        -1.031071     -0.660685      1.195719
      6.61935      5.60398     13.36479         0.158259      0.235944      1.388948
      4.89419      8.61761     13.31362         0.257395     -0.657687      0.576382
 -----------------------------------------------------------------------------------
    total drift:                                0.001427     -0.005237     -0.003998


--------------------------------------------------------------------------------------------------------



  FREE ENERGIE OF THE ION-ELECTRON SYSTEM (eV)
  ---------------------------------------------------
  free  energy   TOTEN  =      -595.97335511 eV

  energy  without entropy=     -595.97335511  energy(sigma->0) =     -595.97335511
 


--------------------------------------------------------------------------------------------------------


    POTLOK:  cpu time    0.7895: real time    0.7895


--------------------------------------------------------------------------------------------------------


     LOOP+:  cpu time 1849.2484: real time 1849.6463
    4ORBIT:  cpu time    0.0000: real time    0.0000

 total amount of memory used by VASP MPI-rank0   234730. kBytes
=======================================================================

   base      :      30000. kBytes
   nonlr-proj:      19462. kBytes
   fftplans  :      66973. kBytes
   grid      :      38377. kBytes
   one-center:        108. kBytes
   wavefun   :      79810. kBytes
 
  
  
 General timing and accounting informations for this job:
 ========================================================
  
                  Total CPU time used (sec):     1883.382
                            User time (sec):     1877.031
                          System time (sec):        6.351
                         Elapsed time (sec):     1883.969
  
                   Maximum memory used (kb):      442152.
                   Average memory used (kb):           0.
  
                          Minor page faults:       189682
                          Major page faults:            0
                 Voluntary context switches:         2090
