<?xml version="1.0" encoding="ISO-8859-1"?>
<modeling>
 <generator>
  <i name="program" type="string">vasp </i>
  <i name="version" type="string">5.4.4.18Apr17-6-g9f103f2a35  </i>
  <i name="subversion" type="string">(build Oct 31 2019 15:01:46) complex            parallel </i>
  <i name="platform" type="string">LinuxIFC </i>
  <i name="date" type="string">2024 04 20 </i>
  <i name="time" type="string">02:22:55 </i>
 </generator>
 <incar>
  <i type="int" name="ISTART">     0</i>
  <i type="string" name="PREC">anormal</i>
  <i type="logical" name="ADDGRID"> T  </i>
  <i type="int" name="IBRION">    -1</i>
  <i name="EDIFF">      0.00000100</i>
  <i name="EDIFFG">     -0.01000000</i>
  <i type="int" name="NSW">     1</i>
  <i type="int" name="ISIF">     2</i>
  <i type="int" name="ISYM">     2</i>
  <i name="ENCUT">    600.00000000</i>
  <i name="POTIM">      1.00000000</i>
  <i type="string" name="LREAL"> Auto.</i>
  <i type="int" name="ISMEAR">     0</i>
  <i name="SIGMA">      0.05000000</i>
  <i name="KSPACING">      0.25000000</i>
  <i type="logical" name="LWAVE"> F  </i>
  <i type="logical" name="LCHARG"> F  </i>
  <i type="logical" name="LSCALAPACK"> F  </i>
  <v type="int" name="KPOINT_BSE">    -1     0     0     0</v>
 </incar>
 <structure name="primitive_cell" >
  <crystal>
   <varray name="basis" >
    <v>      13.12862340       0.00000000       0.00000000 </v>
    <v>      -6.56431170      11.36972138       0.00000000 </v>
    <v>       0.00000000       0.00000000      26.82809424 </v>
   </varray>
   <i name="volume">   4004.59716953 </i>
   <varray name="rec_basis" >
    <v>       0.07616945       0.04397645       0.00000000 </v>
    <v>       0.00000000       0.08795290       0.00000000 </v>
    <v>       0.00000000       0.00000000       0.03727436 </v>
   </varray>
  </crystal>
  <varray name="positions" >
   <v>       0.07613043       0.16463682       0.45194673 </v>
   <v>       0.00288293       0.01181481       0.49932667 </v>
   <v>       0.00517563       0.25450470       0.49591577 </v>
   <v>      -0.09422042       0.07680065       0.41145910 </v>
   <v>       0.16888407       0.08867280       0.40607026 </v>
   <v>       0.17763143       0.34340563       0.40983410 </v>
   <v>       0.24772496       0.25523997      -0.49880224 </v>
   <v>      -0.09219984       0.07953107      -0.45399087 </v>
   <v>       0.17066528       0.33000581      -0.45136810 </v>
   <v>       0.08698877      -0.07427413       0.45070454 </v>
   <v>       0.16666663       0.08199410      -0.45349399 </v>
   <v>       0.32447697       0.40938946       0.45239809 </v>
   <v>      -0.17105399      -0.08527701       0.44635912 </v>
   <v>       0.08338095       0.42052953       0.45534127 </v>
   <v>      -0.17320755       0.17188490       0.44314728 </v>
   <v>       0.33508524       0.16142564       0.45212530 </v>
   <v>       0.06850554       0.16637470      -0.41264698 </v>
   <v>      -0.07170615      -0.16193545       0.41001253 </v>
   <v>      -0.08477442       0.33615340       0.40644058 </v>
   <v>       0.25552898       0.49861506      -0.49668727 </v>
   <v>      -0.26329491      -0.01339230       0.49738221 </v>
   <v>       0.24688100      -0.00291203       0.49999619 </v>
   <v>       0.42368534       0.35134257       0.41331903 </v>
   <v>      -0.08650744      -0.15954053      -0.45369419 </v>
   <v>      -0.08047977       0.33612504      -0.45191019 </v>
   <v>      -0.15998295      -0.07204772      -0.41525194 </v>
   <v>       0.43269764       0.34218996      -0.45340807 </v>
   <v>      -0.16208097       0.16057534      -0.40835905 </v>
   <v>       0.08276391      -0.07994715      -0.41095041 </v>
   <v>       0.32585126       0.41425089      -0.40718734 </v>
   <v>      -0.24076721       0.25558430       0.49544861 </v>
   <v>      -0.32457161       0.09151350       0.40574797 </v>
   <v>       0.33224719       0.16855818      -0.40831933 </v>
   <v>       0.16343744      -0.42520835       0.41325951 </v>
   <v>      -0.24824012      -0.24205617       0.49625658 </v>
   <v>       0.09228146       0.42922932      -0.40864320 </v>
   <v>      -0.00310944      -0.24400947      -0.49926440 </v>
   <v>       0.40832990       0.07626791       0.41640205 </v>
   <v>      -0.34048429      -0.17036998       0.40585252 </v>
   <v>       0.49655884       0.25534562      -0.49940513 </v>
   <v>       0.00401914      -0.49290926      -0.49973728 </v>
   <v>       0.17966247      -0.16526903       0.40794457 </v>
   <v>       0.41536388      -0.40468478       0.40625858 </v>
   <v>      -0.48401538      -0.49017984      -0.49776268 </v>
   <v>      -0.32852895       0.08539639      -0.45285270 </v>
   <v>      -0.33605155      -0.16084388      -0.45553878 </v>
   <v>       0.16863810      -0.42017213      -0.45130045 </v>
   <v>       0.16564611      -0.16472454      -0.45361146 </v>
   <v>       0.33293028      -0.34003497       0.45314518 </v>
   <v>       0.41772809      -0.42066750      -0.45272512 </v>
   <v>      -0.16027295      -0.33634743       0.45765385 </v>
   <v>      -0.16841763       0.42158559       0.45038534 </v>
   <v>       0.41427299       0.08197091      -0.45039478 </v>
   <v>      -0.41759345       0.41009890       0.44986164 </v>
   <v>      -0.43086834      -0.08894325       0.45432907 </v>
   <v>       0.33140730      -0.08764955       0.45623632 </v>
   <v>      -0.42082984       0.16560795       0.45325357 </v>
   <v>      -0.42056093      -0.33611890       0.45046477 </v>
   <v>       0.08189711      -0.33144915       0.45507071 </v>
   <v>      -0.15598722       0.41238644      -0.40828789 </v>
   <v>      -0.16093501      -0.33468201      -0.40831269 </v>
   <v>       0.33331230      -0.33837308      -0.40657481 </v>
   <v>      -0.41883401      -0.07106028      -0.40443554 </v>
   <v>      -0.07678056      -0.40530447       0.40353888 </v>
   <v>       0.32802312      -0.09091225      -0.41067437 </v>
   <v>      -0.34616664       0.33151205       0.40690838 </v>
   <v>       0.49667125       0.00826975      -0.49791078 </v>
   <v>       0.49666685      -0.25330241      -0.49902464 </v>
   <v>      -0.30987578      -0.43299567       0.40801149 </v>
   <v>       0.25384642      -0.24816370      -0.49353725 </v>
   <v>      -0.39611984       0.42536824      -0.40270840 </v>
   <v>      -0.33272321       0.32449824      -0.44969788 </v>
   <v>      -0.32885837      -0.41297005      -0.45098412 </v>
   <v>      -0.08952689      -0.42015905      -0.45104249 </v>
   <v>      -0.40665515      -0.33081345      -0.41259107 </v>
   <v>       0.08202980      -0.33015778      -0.41160972 </v>
   <v>      -0.24936445       0.49288616       0.49816391 </v>
   <v>      -0.42054955       0.16404235      -0.40669843 </v>
   <v>       0.41269592      -0.17461363       0.40985116 </v>
   <v>       0.41702195      -0.18012874      -0.44551666 </v>
  </varray>
 </structure>
 <varray name="primitive_index" >
  <v type="int" >        1 </v>
  <v type="int" >       65 </v>
  <v type="int" >       66 </v>
  <v type="int" >       61 </v>
  <v type="int" >       49 </v>
  <v type="int" >       50 </v>
  <v type="int" >       70 </v>
  <v type="int" >       29 </v>
  <v type="int" >       18 </v>
  <v type="int" >        4 </v>
  <v type="int" >       17 </v>
  <v type="int" >        6 </v>
  <v type="int" >       16 </v>
  <v type="int" >        2 </v>
  <v type="int" >       13 </v>
  <v type="int" >        5 </v>
  <v type="int" >       33 </v>
  <v type="int" >       64 </v>
  <v type="int" >       62 </v>
  <v type="int" >       71 </v>
  <v type="int" >       77 </v>
  <v type="int" >       69 </v>
  <v type="int" >       54 </v>
  <v type="int" >       32 </v>
  <v type="int" >       30 </v>
  <v type="int" >       48 </v>
  <v type="int" >       22 </v>
  <v type="int" >       45 </v>
  <v type="int" >       36 </v>
  <v type="int" >       38 </v>
  <v type="int" >       78 </v>
  <v type="int" >       57 </v>
  <v type="int" >       37 </v>
  <v type="int" >       51 </v>
  <v type="int" >       80 </v>
  <v type="int" >       34 </v>
  <v type="int" >       68 </v>
  <v type="int" >       53 </v>
  <v type="int" >       60 </v>
  <v type="int" >       74 </v>
  <v type="int" >       67 </v>
  <v type="int" >       52 </v>
  <v type="int" >       55 </v>
  <v type="int" >       75 </v>
  <v type="int" >       25 </v>
  <v type="int" >       28 </v>
  <v type="int" >       19 </v>
  <v type="int" >       20 </v>
  <v type="int" >        7 </v>
  <v type="int" >       23 </v>
  <v type="int" >       15 </v>
  <v type="int" >       14 </v>
  <v type="int" >       21 </v>
  <v type="int" >       10 </v>
  <v type="int" >       12 </v>
  <v type="int" >        8 </v>
  <v type="int" >        9 </v>
  <v type="int" >       11 </v>
  <v type="int" >        3 </v>
  <v type="int" >       46 </v>
  <v type="int" >       47 </v>
  <v type="int" >       39 </v>
  <v type="int" >       44 </v>
  <v type="int" >       63 </v>
  <v type="int" >       40 </v>
  <v type="int" >       58 </v>
  <v type="int" >       73 </v>
  <v type="int" >       76 </v>
  <v type="int" >       59 </v>
  <v type="int" >       72 </v>
  <v type="int" >       42 </v>
  <v type="int" >       26 </v>
  <v type="int" >       27 </v>
  <v type="int" >       31 </v>
  <v type="int" >       43 </v>
  <v type="int" >       35 </v>
  <v type="int" >       79 </v>
  <v type="int" >       41 </v>
  <v type="int" >       56 </v>
  <v type="int" >       24 </v>
 </varray>
 <kpoints>
  <generation param="Gamma">
   <v type="int" name="divisions">       3        3        1 </v>
   <v name="usershift">      0.00000000       0.00000000       0.00000000 </v>
   <v name="genvec1">      0.33333333       0.00000000       0.00000000 </v>
   <v name="genvec2">      0.00000000       0.33333333       0.00000000 </v>
   <v name="genvec3">      0.00000000       0.00000000       1.00000000 </v>
   <v name="shift">      0.00000000       0.00000000       0.00000000 </v>
  </generation>
  <varray name="kpointlist" >
   <v>       0.00000000       0.00000000       0.00000000 </v>
   <v>       0.33333333      -0.00000000       0.00000000 </v>
   <v>       0.00000000       0.33333333       0.00000000 </v>
   <v>       0.33333333       0.33333333       0.00000000 </v>
   <v>      -0.33333333       0.33333333       0.00000000 </v>
  </varray>
  <varray name="weights" >
   <v>       0.11111111 </v>
   <v>       0.22222222 </v>
   <v>       0.22222222 </v>
   <v>       0.22222222 </v>
   <v>       0.22222222 </v>
  </varray>
 </kpoints>
 <parameters>
  <separator name="general" >
   <i type="string" name="SYSTEM">unknown system</i>
   <i type="logical" name="LCOMPAT"> F  </i>
  </separator>
  <separator name="electronic" >
   <i type="string" name="PREC">anorma</i>
   <i name="ENMAX">    600.00000000</i>
   <i name="ENAUG">    644.87300000</i>
   <i name="EDIFF">      0.00000100</i>
   <i type="int" name="IALGO">    38</i>
   <i type="int" name="IWAVPR">    10</i>
   <i type="int" name="NBANDS">   384</i>
   <i name="NELECT">    640.00000000</i>
   <i type="int" name="TURBO">     0</i>
   <i type="int" name="IRESTART">     0</i>
   <i type="int" name="NREBOOT">     0</i>
   <i type="int" name="NMIN">     0</i>
   <i name="EREF">      0.00000000</i>
   <separator name="electronic smearing" >
    <i type="int" name="ISMEAR">     0</i>
    <i name="SIGMA">      0.05000000</i>
    <i name="KSPACING">      0.25000000</i>
    <i type="logical" name="KGAMMA"> T  </i>
   </separator>
   <separator name="electronic projectors" >
    <i type="logical" name="LREAL"> T  </i>
    <v name="ROPT">     -0.00025000     -0.00025000     -0.00025000</v>
    <i type="int" name="LMAXPAW">  -100</i>
    <i type="int" name="LMAXMIX">     2</i>
    <i type="logical" name="NLSPLINE"> F  </i>
   </separator>
   <separator name="electronic startup" >
    <i type="int" name="ISTART">     0</i>
    <i type="int" name="ICHARG">     2</i>
    <i type="int" name="INIWAV">     1</i>
   </separator>
   <separator name="electronic spin" >
    <i type="int" name="ISPIN">     1</i>
    <i type="logical" name="LNONCOLLINEAR"> F  </i>
    <v name="MAGMOM">      1.00000000      1.00000000      1.00000000      1.00000000      1.00000000      1.00000000      1.00000000      1.00000000      1.00000000      1.00000000      1.00000000      1.00000000      1.00000000      1.00000000      1.00000000      1.00000000      1.00000000      1.00000000      1.00000000      1.00000000
      1.00000000      1.00000000      1.00000000      1.00000000      1.00000000      1.00000000      1.00000000      1.00000000      1.00000000      1.00000000      1.00000000      1.00000000      1.00000000      1.00000000      1.00000000      1.00000000      1.00000000      1.00000000      1.00000000      1.00000000
      1.00000000      1.00000000      1.00000000      1.00000000      1.00000000      1.00000000      1.00000000      1.00000000      1.00000000      1.00000000      1.00000000      1.00000000      1.00000000      1.00000000      1.00000000      1.00000000      1.00000000      1.00000000      1.00000000      1.00000000
      1.00000000      1.00000000      1.00000000      1.00000000      1.00000000      1.00000000      1.00000000      1.00000000      1.00000000      1.00000000      1.00000000      1.00000000      1.00000000      1.00000000      1.00000000      1.00000000      1.00000000      1.00000000      1.00000000      1.00000000
</v>
    <i name="NUPDOWN">     -1.00000000</i>
    <i type="logical" name="LSORBIT"> F  </i>
    <v name="SAXIS">      0.00000000      0.00000000      1.00000000</v>
    <i type="logical" name="LSPIRAL"> F  </i>
    <v name="QSPIRAL">      0.00000000      0.00000000      0.00000000</v>
    <i type="logical" name="LZEROZ"> F  </i>
   </separator>
   <separator name="electronic exchange-correlation" >
    <i type="logical" name="LASPH"> F  </i>
    <i type="logical" name="LMETAGGA"> F  </i>
   </separator>
   <separator name="electronic convergence" >
    <i type="int" name="NELM">    60</i>
    <i type="int" name="NELMDL">    -5</i>
    <i type="int" name="NELMIN">     2</i>
    <i name="ENINI">    600.00000000</i>
    <separator name="electronic convergence detail" >
     <i type="logical" name="LDIAG"> T  </i>
     <i type="logical" name="LSUBROT"> F  </i>
     <i name="WEIMIN">      0.00000000</i>
     <i name="EBREAK">      0.00000000</i>
     <i name="DEPER">      0.30000000</i>
     <i type="int" name="NRMM">     4</i>
     <i name="TIME">      0.40000000</i>
    </separator>
   </separator>
   <separator name="electronic mixer" >
    <i name="AMIX">      0.40000000</i>
    <i name="BMIX">      1.00000000</i>
    <i name="AMIN">      0.10000000</i>
    <i name="AMIX_MAG">      1.60000000</i>
    <i name="BMIX_MAG">      1.00000000</i>
    <separator name="electronic mixer details" >
     <i type="int" name="IMIX">     4</i>
     <i type="logical" name="MIXFIRST"> F  </i>
     <i type="int" name="MAXMIX">   -45</i>
     <i name="WC">    100.00000000</i>
     <i type="int" name="INIMIX">     1</i>
     <i type="int" name="MIXPRE">     1</i>
     <i type="int" name="MREMOVE">     5</i>
    </separator>
   </separator>
   <separator name="electronic dipolcorrection" >
    <i type="logical" name="LDIPOL"> F  </i>
    <i type="logical" name="LMONO"> F  </i>
    <i type="int" name="IDIPOL">     0</i>
    <i name="EPSILON">      1.00000000</i>
    <v name="DIPOL">   -100.00000000   -100.00000000   -100.00000000</v>
    <i name="EFIELD">      0.00000000</i>
   </separator>
  </separator>
  <separator name="grids" >
   <i type="int" name="NGX">   108</i>
   <i type="int" name="NGY">   108</i>
   <i type="int" name="NGZ">   216</i>
   <i type="int" name="NGXF">   216</i>
   <i type="int" name="NGYF">   216</i>
   <i type="int" name="NGZF">   432</i>
   <i type="logical" name="ADDGRID"> T  </i>
  </separator>
  <separator name="ionic" >
   <i type="int" name="NSW">     1</i>
   <i type="int" name="IBRION">    -1</i>
   <i type="int" name="MDALGO">     0</i>
   <i type="int" name="ISIF">     2</i>
   <i name="PSTRESS">      0.00000000</i>
   <i name="EDIFFG">     -0.01000000</i>
   <i type="int" name="NFREE">     0</i>
   <i name="POTIM">      1.00000000</i>
   <i name="SMASS">     -3.00000000</i>
   <i name="SCALEE">      1.00000000</i>
  </separator>
  <separator name="ionic md" >
   <i name="TEBEG">      0.00010000</i>
   <i name="TEEND">      0.00010000</i>
   <i type="int" name="NBLOCK">     1</i>
   <i type="int" name="KBLOCK">     1</i>
   <i type="int" name="NPACO">   256</i>
   <i name="APACO">     16.00000000</i>
  </separator>
  <separator name="symmetry" >
   <i type="int" name="ISYM">     2</i>
   <i name="SYMPREC">      0.00001000</i>
  </separator>
  <separator name="dos" >
   <i type="int" name="LORBIT">     0</i>
   <v name="RWIGS">     -1.00000000     -1.00000000     -1.00000000</v>
   <i type="int" name="NEDOS">   301</i>
   <i name="EMIN">     10.00000000</i>
   <i name="EMAX">    -10.00000000</i>
   <i name="EFERMI">      0.00000000</i>
  </separator>
  <separator name="writing" >
   <i type="int" name="NWRITE">     2</i>
   <i type="logical" name="LWAVE"> F  </i>
   <i type="logical" name="LDOWNSAMPLE"> F  </i>
   <i type="logical" name="LCHARG"> F  </i>
   <i type="logical" name="LPARD"> F  </i>
   <i type="logical" name="LVTOT"> F  </i>
   <i type="logical" name="LVHAR"> F  </i>
   <i type="logical" name="LELF"> F  </i>
   <i type="logical" name="LOPTICS"> F  </i>
   <v name="STM">      0.00000000      0.00000000      0.00000000      0.00000000      0.00000000      0.00000000      0.00000000</v>
  </separator>
  <separator name="performance" >
   <i type="int" name="NPAR">     4</i>
   <i type="int" name="NSIM">     4</i>
   <i type="int" name="NBLK">    -1</i>
   <i type="logical" name="LPLANE"> T  </i>
   <i type="logical" name="LSCALAPACK"> F  </i>
   <i type="logical" name="LSCAAWARE"> F  </i>
   <i type="logical" name="LSCALU"> F  </i>
   <i type="logical" name="LASYNC"> F  </i>
   <i type="logical" name="LORBITALREAL"> F  </i>
  </separator>
  <separator name="miscellaneous" >
   <i type="int" name="IDIOT">     3</i>
   <i type="int" name="ISPECIAL">     0</i>
   <i type="logical" name="LMUSIC"> F  </i>
   <v name="POMASS">     44.95600000     18.99800000     12.01100000</v>
   <v name="DARWINR">      0.00000000      0.00000000      0.00000000</v>
   <v name="DARWINV">      1.00000000      1.00000000      1.00000000</v>
   <i type="logical" name="LCORR"> T  </i>
  </separator>
  <i type="logical" name="GGA_COMPAT"> T  </i>
  <i type="logical" name="LBERRY"> F  </i>
  <i type="int" name="ICORELEVEL">     0</i>
  <i type="logical" name="LDAU"> F  </i>
  <i type="int" name="I_CONSTRAINED_M">     0</i>
  <separator name="electronic exchange-correlation" >
   <i type="string" name="GGA">--</i>
   <i type="int" name="VOSKOWN">     0</i>
   <i type="logical" name="LHFCALC"> F  </i>
   <i type="string" name="PRECFOCK"></i>
   <i type="logical" name="LSYMGRAD"> F  </i>
   <i type="logical" name="LHFONE"> F  </i>
   <i type="logical" name="LRHFCALC"> F  </i>
   <i type="logical" name="LTHOMAS"> F  </i>
   <i type="logical" name="LMODELHF"> F  </i>
   <i name="ENCUT4O">     -1.00000000</i>
   <i type="int" name="EXXOEP">     0</i>
   <i type="int" name="FOURORBIT">     0</i>
   <i name="AEXX">      0.00000000</i>
   <i name="HFALPHA">      0.00000000</i>
   <i name="MCALPHA">      0.00000000</i>
   <i name="ALDAX">      1.00000000</i>
   <i name="AGGAX">      1.00000000</i>
   <i name="ALDAC">      1.00000000</i>
   <i name="AGGAC">      1.00000000</i>
   <i type="int" name="NKREDX">     1</i>
   <i type="int" name="NKREDY">     1</i>
   <i type="int" name="NKREDZ">     1</i>
   <i type="logical" name="SHIFTRED"> F  </i>
   <i type="logical" name="ODDONLY"> F  </i>
   <i type="logical" name="EVENONLY"> F  </i>
   <i type="int" name="LMAXFOCK">     0</i>
   <i type="int" name="NMAXFOCKAE">     0</i>
   <i type="logical" name="LFOCKAEDFT"> F  </i>
   <i name="HFSCREEN">      0.00000000</i>
   <i name="HFSCREENC">      0.00000000</i>
   <i type="int" name="NBANDSGWLOW">     0</i>
  </separator>
  <separator name="vdW DFT" >
   <i type="logical" name="LUSE_VDW"> F  </i>
   <i name="Zab_VDW">     -0.84910000</i>
   <i name="PARAM1">      0.12340000</i>
   <i name="PARAM2">      1.00000000</i>
   <i name="PARAM3">      0.00000000</i>
  </separator>
  <separator name="model GW" >
   <i type="int" name="MODEL_GW">     0</i>
   <i name="MODEL_EPS0">     30.03447877</i>
   <i name="MODEL_ALPHA">      1.00000000</i>
  </separator>
  <separator name="linear response parameters" >
   <i type="logical" name="LEPSILON"> F  </i>
   <i type="logical" name="LRPA"> F  </i>
   <i type="logical" name="LNABLA"> F  </i>
   <i type="logical" name="LVEL"> F  </i>
   <i type="int" name="KINTER">     0</i>
   <i name="CSHIFT">      0.10000000</i>
   <i name="OMEGAMAX">     -1.00000000</i>
   <i name="DEG_THRESHOLD">      0.00200000</i>
   <i name="RTIME">     -0.10000000</i>
   <i name="WPLASMAI">      0.00000000</i>
   <v name="DFIELD">      0.00000000      0.00000000      0.00000000</v>
   <v name="WPLASMA">      0.00000000      0.00000000      0.00000000      0.00000000      0.00000000      0.00000000      0.00000000      0.00000000      0.00000000</v>
  </separator>
  <separator name="orbital magnetization" >
   <i type="logical" name="NUCIND"> F  </i>
   <v name="MAGPOS">      0.00000000      0.00000000      0.00000000</v>
   <i type="logical" name="LNICSALL"> T  </i>
   <i type="logical" name="ORBITALMAG"> F  </i>
   <i type="logical" name="LMAGBLOCH"> F  </i>
   <i type="logical" name="LCHIMAG"> F  </i>
   <i type="logical" name="LGAUGE"> T  </i>
   <i type="int" name="MAGATOM">     0</i>
   <v name="MAGDIPOL">      0.00000000      0.00000000      0.00000000</v>
   <v name="AVECCONST">      0.00000000      0.00000000      0.00000000</v>
  </separator>
  <separator name="response functions" >
   <i type="logical" name="LADDER"> F  </i>
   <i type="logical" name="LRPAFORCE"> F  </i>
   <i type="logical" name="LFXC"> F  </i>
   <i type="logical" name="LHARTREE"> T  </i>
   <i type="int" name="IBSE">     0</i>
   <v type="int" name="KPOINT">    -1     0     0     0</v>
   <i type="logical" name="LTCTE"> F  </i>
   <i type="logical" name="LTETE"> F  </i>
   <i type="logical" name="LTRIPLET"> F  </i>
   <i type="logical" name="LFXCEPS"> F  </i>
   <i type="logical" name="LFXHEG"> F  </i>
   <i type="int" name="NATURALO">     2</i>
   <i type="logical" name="L2ORDER"> F  </i>
   <i type="logical" name="LMP2LT"> F  </i>
   <i type="logical" name="LUSEW"> F  </i>
   <i name="ENCUTGW">     -2.00000000</i>
   <i name="ENCUTGWSOFT">     -2.00000000</i>
   <i name="ENCUTLF">     -1.00000000</i>
   <i type="int" name="LMAXMP2">    -1</i>
   <i name="SCISSOR">      0.00000000</i>
   <i type="int" name="NOMEGA">     0</i>
   <i type="int" name="NOMEGAR">     0</i>
   <i type="int" name="NBANDSGW">    -1</i>
   <i type="int" name="NBANDSO">    -1</i>
   <i type="int" name="NBANDSV">    -1</i>
   <i type="int" name="NELM">     1</i>
   <i type="int" name="NELMHF">     1</i>
   <i type="int" name="DIM">     3</i>
   <i type="int" name="ANTIRES">     0</i>
   <i name="OMEGAMAX">    -30.00000000</i>
   <i name="OMEGAMIN">    -30.00000000</i>
   <i name="OMEGATL">   -200.00000000</i>
   <i type="int" name="OMEGAGRID">   140</i>
   <i name="CSHIFT">     -0.10000000</i>
   <i type="logical" name="SELFENERGY"> F  </i>
   <i type="logical" name="LSPECTRAL"> F  </i>
   <i type="logical" name="LSPECTRALGW"> F  </i>
   <i type="logical" name="LSINGLES"> F  </i>
   <i type="logical" name="LFERMIGW"> F  </i>
   <i type="logical" name="ODDONLYGW"> F  </i>
   <i type="logical" name="EVENONLYGW"> F  </i>
   <i type="int" name="NKREDLFX">     1</i>
   <i type="int" name="NKREDLFY">     1</i>
   <i type="int" name="NKREDLFZ">     1</i>
   <i type="int" name="MAXMEM">  2800</i>
   <i type="int" name="TELESCOPE">     0</i>
   <i type="int" name="TAUPAR">     1</i>
   <i type="int" name="OMEGAPAR">    -1</i>
   <i name="LAMBDA">      1.00000000</i>
  </separator>
  <separator name="External order field" >
   <i name="OFIELD_KAPPA">      0.00000000</i>
   <v name="OFIELD_K">      0.00000000      0.00000000      0.00000000</v>
   <i name="OFIELD_Q6_NEAR">      0.00000000</i>
   <i name="OFIELD_Q6_FAR">      0.00000000</i>
   <i name="OFIELD_A">      0.00000000</i>
  </separator>
 </parameters>
 <atominfo>
  <atoms>      80 </atoms>
  <types>       3 </types>
  <array name="atoms" >
   <dimension dim="1">ion</dimension>
   <field type="string">element</field>
   <field type="int">atomtype</field>
   <set>
    <rc><c>Sc</c><c>   1</c></rc>
    <rc><c>Sc</c><c>   1</c></rc>
    <rc><c>Sc</c><c>   1</c></rc>
    <rc><c>Sc</c><c>   1</c></rc>
    <rc><c>Sc</c><c>   1</c></rc>
    <rc><c>Sc</c><c>   1</c></rc>
    <rc><c>Sc</c><c>   1</c></rc>
    <rc><c>Sc</c><c>   1</c></rc>
    <rc><c>Sc</c><c>   1</c></rc>
    <rc><c>Sc</c><c>   1</c></rc>
    <rc><c>Sc</c><c>   1</c></rc>
    <rc><c>Sc</c><c>   1</c></rc>
    <rc><c>Sc</c><c>   1</c></rc>
    <rc><c>Sc</c><c>   1</c></rc>
    <rc><c>Sc</c><c>   1</c></rc>
    <rc><c>Sc</c><c>   1</c></rc>
    <rc><c>Sc</c><c>   1</c></rc>
    <rc><c>Sc</c><c>   1</c></rc>
    <rc><c>Sc</c><c>   1</c></rc>
    <rc><c>Sc</c><c>   1</c></rc>
    <rc><c>Sc</c><c>   1</c></rc>
    <rc><c>Sc</c><c>   1</c></rc>
    <rc><c>Sc</c><c>   1</c></rc>
    <rc><c>Sc</c><c>   1</c></rc>
    <rc><c>Sc</c><c>   1</c></rc>
    <rc><c>Sc</c><c>   1</c></rc>
    <rc><c>Sc</c><c>   1</c></rc>
    <rc><c>Sc</c><c>   1</c></rc>
    <rc><c>Sc</c><c>   1</c></rc>
    <rc><c>Sc</c><c>   1</c></rc>
    <rc><c>Sc</c><c>   1</c></rc>
    <rc><c>Sc</c><c>   1</c></rc>
    <rc><c>F </c><c>   2</c></rc>
    <rc><c>F </c><c>   2</c></rc>
    <rc><c>F </c><c>   2</c></rc>
    <rc><c>F </c><c>   2</c></rc>
    <rc><c>F </c><c>   2</c></rc>
    <rc><c>F </c><c>   2</c></rc>
    <rc><c>F </c><c>   2</c></rc>
    <rc><c>F </c><c>   2</c></rc>
    <rc><c>F </c><c>   2</c></rc>
    <rc><c>F </c><c>   2</c></rc>
    <rc><c>F </c><c>   2</c></rc>
    <rc><c>F </c><c>   2</c></rc>
    <rc><c>F </c><c>   2</c></rc>
    <rc><c>F </c><c>   2</c></rc>
    <rc><c>F </c><c>   2</c></rc>
    <rc><c>F </c><c>   2</c></rc>
    <rc><c>F </c><c>   2</c></rc>
    <rc><c>F </c><c>   2</c></rc>
    <rc><c>F </c><c>   2</c></rc>
    <rc><c>F </c><c>   2</c></rc>
    <rc><c>F </c><c>   2</c></rc>
    <rc><c>F </c><c>   2</c></rc>
    <rc><c>F </c><c>   2</c></rc>
    <rc><c>F </c><c>   2</c></rc>
    <rc><c>F </c><c>   2</c></rc>
    <rc><c>F </c><c>   2</c></rc>
    <rc><c>F </c><c>   2</c></rc>
    <rc><c>F </c><c>   2</c></rc>
    <rc><c>F </c><c>   2</c></rc>
    <rc><c>F </c><c>   2</c></rc>
    <rc><c>F </c><c>   2</c></rc>
    <rc><c>F </c><c>   2</c></rc>
    <rc><c>C </c><c>   3</c></rc>
    <rc><c>C </c><c>   3</c></rc>
    <rc><c>C </c><c>   3</c></rc>
    <rc><c>C </c><c>   3</c></rc>
    <rc><c>C </c><c>   3</c></rc>
    <rc><c>C </c><c>   3</c></rc>
    <rc><c>C </c><c>   3</c></rc>
    <rc><c>C </c><c>   3</c></rc>
    <rc><c>C </c><c>   3</c></rc>
    <rc><c>C </c><c>   3</c></rc>
    <rc><c>C </c><c>   3</c></rc>
    <rc><c>C </c><c>   3</c></rc>
    <rc><c>C </c><c>   3</c></rc>
    <rc><c>C </c><c>   3</c></rc>
    <rc><c>C </c><c>   3</c></rc>
    <rc><c>C </c><c>   3</c></rc>
   </set>
  </array>
  <array name="atomtypes" >
   <dimension dim="1">type</dimension>
   <field type="int">atomspertype</field>
   <field type="string">element</field>
   <field>mass</field>
   <field>valence</field>
   <field type="string">pseudopotential</field>
   <set>
    <rc><c>  32</c><c>Sc</c><c>     44.95600000</c><c>     11.00000000</c><c>  PAW_PBE Sc_sv 07Sep2000               </c></rc>
    <rc><c>  32</c><c>F </c><c>     18.99800000</c><c>      7.00000000</c><c>  PAW_PBE F 08Apr2002                   </c></rc>
    <rc><c>  16</c><c>C </c><c>     12.01100000</c><c>      4.00000000</c><c>  PAW_PBE C 08Apr2002                   </c></rc>
   </set>
  </array>
 </atominfo>
 <structure name="initialpos" >
  <crystal>
   <varray name="basis" >
    <v>      13.12862340       0.00000000       0.00000000 </v>
    <v>      -6.56431170      11.36972138       0.00000000 </v>
    <v>       0.00000000       0.00000000      26.82809424 </v>
   </varray>
   <i name="volume">   4004.59716953 </i>
   <varray name="rec_basis" >
    <v>       0.07616945       0.04397645       0.00000000 </v>
    <v>       0.00000000       0.08795290       0.00000000 </v>
    <v>       0.00000000       0.00000000       0.03727436 </v>
   </varray>
  </crystal>
  <varray name="positions" >
   <v>       0.07613043       0.16463682       0.45194673 </v>
   <v>       0.08338095       0.42052953       0.45534127 </v>
   <v>       0.08189711       0.66855085       0.45507071 </v>
   <v>       0.08698877       0.92572587       0.45070454 </v>
   <v>       0.33508524       0.16142564       0.45212530 </v>
   <v>       0.32447697       0.40938946       0.45239809 </v>
   <v>       0.33293028       0.65996503       0.45314518 </v>
   <v>       0.33140730       0.91235045       0.45623632 </v>
   <v>       0.57917016       0.16560795       0.45325357 </v>
   <v>       0.58240655       0.41009890       0.44986164 </v>
   <v>       0.57943907       0.66388110       0.45046477 </v>
   <v>       0.56913166       0.91105675       0.45432907 </v>
   <v>       0.82679245       0.17188490       0.44314728 </v>
   <v>       0.83158237       0.42158559       0.45038534 </v>
   <v>       0.83972705       0.66365257       0.45765385 </v>
   <v>       0.82894601       0.91472299       0.44635912 </v>
   <v>       0.16666663       0.08199410       0.54650601 </v>
   <v>       0.17066528       0.33000581       0.54863190 </v>
   <v>       0.16863810       0.57982787       0.54869955 </v>
   <v>       0.16564611       0.83527546       0.54638854 </v>
   <v>       0.41427299       0.08197091       0.54960522 </v>
   <v>       0.43269764       0.34218996       0.54659193 </v>
   <v>       0.41772809       0.57933250       0.54727488 </v>
   <v>       0.41702195       0.81987126       0.55448334 </v>
   <v>       0.67147105       0.08539639       0.54714730 </v>
   <v>       0.66727679       0.32449824       0.55030212 </v>
   <v>       0.67114163       0.58702995       0.54901588 </v>
   <v>       0.66394845       0.83915612       0.54446122 </v>
   <v>       0.90780016       0.07953107       0.54600913 </v>
   <v>       0.91952023       0.33612504       0.54808981 </v>
   <v>       0.91047311       0.57984095       0.54895751 </v>
   <v>       0.91349256       0.84045947       0.54630581 </v>
   <v>       0.06850554       0.16637470       0.58735302 </v>
   <v>       0.09228146       0.42922932       0.59135680 </v>
   <v>       0.08202980       0.66984222       0.58839028 </v>
   <v>       0.08276391       0.92005285       0.58904959 </v>
   <v>       0.33224719       0.16855818       0.59168067 </v>
   <v>       0.32585126       0.41425089       0.59281266 </v>
   <v>       0.33331230       0.66162692       0.59342519 </v>
   <v>       0.32802312       0.90908775       0.58932563 </v>
   <v>       0.57945045       0.16404235       0.59330157 </v>
   <v>       0.60388016       0.42536824       0.59729160 </v>
   <v>       0.59334485       0.66918655       0.58740893 </v>
   <v>       0.58116599       0.92893972       0.59556446 </v>
   <v>       0.83791903       0.16057534       0.59164095 </v>
   <v>       0.84401278       0.41238644       0.59171211 </v>
   <v>       0.83906499       0.66531799       0.59168731 </v>
   <v>       0.84001705       0.92795228       0.58474806 </v>
   <v>       0.16888407       0.08867280       0.40607026 </v>
   <v>       0.17763143       0.34340563       0.40983410 </v>
   <v>       0.16343744       0.57479165       0.41325951 </v>
   <v>       0.17966247       0.83473097       0.40794457 </v>
   <v>       0.40832990       0.07626791       0.41640205 </v>
   <v>       0.42368534       0.35134257       0.41331903 </v>
   <v>       0.41536388       0.59531522       0.40625858 </v>
   <v>       0.41269592       0.82538637       0.40985116 </v>
   <v>       0.67542839       0.09151350       0.40574797 </v>
   <v>       0.65383336       0.33151205       0.40690838 </v>
   <v>       0.69012422       0.56700433       0.40801149 </v>
   <v>       0.65951571       0.82963002       0.40585252 </v>
   <v>       0.90577958       0.07680065       0.41145910 </v>
   <v>       0.91522558       0.33615340       0.40644058 </v>
   <v>       0.92321944       0.59469553       0.40353888 </v>
   <v>       0.92829385       0.83806455       0.41001253 </v>
   <v>       0.00288293       0.01181481       0.49932667 </v>
   <v>       0.00517563       0.25450470       0.49591577 </v>
   <v>       0.00401914       0.50709074       0.50026272 </v>
   <v>       0.99689056       0.75599053       0.50073560 </v>
   <v>       0.24688100       0.99708797       0.49999619 </v>
   <v>       0.24772496       0.25523997       0.50119776 </v>
   <v>       0.25552898       0.49861506       0.50331273 </v>
   <v>       0.25384642       0.75183630       0.50646275 </v>
   <v>       0.49667125       0.00826975       0.50208922 </v>
   <v>       0.49655884       0.25534562       0.50059487 </v>
   <v>       0.51598462       0.50982016       0.50223732 </v>
   <v>       0.49666685       0.74669759       0.50097536 </v>
   <v>       0.73670509       0.98660770       0.49738221 </v>
   <v>       0.75923279       0.25558430       0.49544861 </v>
   <v>       0.75063555       0.49288616       0.49816391 </v>
   <v>       0.75175988       0.75794383       0.49625658 </v>
  </varray>
  <varray name="velocities" >
   <v>       0.00000000       0.00000000       0.00000000 </v>
   <v>       0.00000000       0.00000000       0.00000000 </v>
   <v>       0.00000000       0.00000000       0.00000000 </v>
   <v>       0.00000000       0.00000000       0.00000000 </v>
   <v>       0.00000000       0.00000000       0.00000000 </v>
   <v>       0.00000000       0.00000000       0.00000000 </v>
   <v>       0.00000000       0.00000000       0.00000000 </v>
   <v>       0.00000000       0.00000000       0.00000000 </v>
   <v>       0.00000000       0.00000000       0.00000000 </v>
   <v>       0.00000000       0.00000000       0.00000000 </v>
   <v>       0.00000000       0.00000000       0.00000000 </v>
   <v>       0.00000000       0.00000000       0.00000000 </v>
   <v>       0.00000000       0.00000000       0.00000000 </v>
   <v>       0.00000000       0.00000000       0.00000000 </v>
   <v>       0.00000000       0.00000000       0.00000000 </v>
   <v>       0.00000000       0.00000000       0.00000000 </v>
   <v>       0.00000000       0.00000000       0.00000000 </v>
   <v>       0.00000000       0.00000000       0.00000000 </v>
   <v>       0.00000000       0.00000000       0.00000000 </v>
   <v>       0.00000000       0.00000000       0.00000000 </v>
   <v>       0.00000000       0.00000000       0.00000000 </v>
   <v>       0.00000000       0.00000000       0.00000000 </v>
   <v>       0.00000000       0.00000000       0.00000000 </v>
   <v>       0.00000000       0.00000000       0.00000000 </v>
   <v>       0.00000000       0.00000000       0.00000000 </v>
   <v>       0.00000000       0.00000000       0.00000000 </v>
   <v>       0.00000000       0.00000000       0.00000000 </v>
   <v>       0.00000000       0.00000000       0.00000000 </v>
   <v>       0.00000000       0.00000000       0.00000000 </v>
   <v>       0.00000000       0.00000000       0.00000000 </v>
   <v>       0.00000000       0.00000000       0.00000000 </v>
   <v>       0.00000000       0.00000000       0.00000000 </v>
   <v>       0.00000000       0.00000000       0.00000000 </v>
   <v>       0.00000000       0.00000000       0.00000000 </v>
   <v>       0.00000000       0.00000000       0.00000000 </v>
   <v>       0.00000000       0.00000000       0.00000000 </v>
   <v>       0.00000000       0.00000000       0.00000000 </v>
   <v>       0.00000000       0.00000000       0.00000000 </v>
   <v>       0.00000000       0.00000000       0.00000000 </v>
   <v>       0.00000000       0.00000000       0.00000000 </v>
   <v>       0.00000000       0.00000000       0.00000000 </v>
   <v>       0.00000000       0.00000000       0.00000000 </v>
   <v>       0.00000000       0.00000000       0.00000000 </v>
   <v>       0.00000000       0.00000000       0.00000000 </v>
   <v>       0.00000000       0.00000000       0.00000000 </v>
   <v>       0.00000000       0.00000000       0.00000000 </v>
   <v>       0.00000000       0.00000000       0.00000000 </v>
   <v>       0.00000000       0.00000000       0.00000000 </v>
   <v>       0.00000000       0.00000000       0.00000000 </v>
   <v>       0.00000000       0.00000000       0.00000000 </v>
   <v>       0.00000000       0.00000000       0.00000000 </v>
   <v>       0.00000000       0.00000000       0.00000000 </v>
   <v>       0.00000000       0.00000000       0.00000000 </v>
   <v>       0.00000000       0.00000000       0.00000000 </v>
   <v>       0.00000000       0.00000000       0.00000000 </v>
   <v>       0.00000000       0.00000000       0.00000000 </v>
   <v>       0.00000000       0.00000000       0.00000000 </v>
   <v>       0.00000000       0.00000000       0.00000000 </v>
   <v>       0.00000000       0.00000000       0.00000000 </v>
   <v>       0.00000000       0.00000000       0.00000000 </v>
   <v>       0.00000000       0.00000000       0.00000000 </v>
   <v>       0.00000000       0.00000000       0.00000000 </v>
   <v>       0.00000000       0.00000000       0.00000000 </v>
   <v>       0.00000000       0.00000000       0.00000000 </v>
   <v>       0.00000000       0.00000000       0.00000000 </v>
   <v>       0.00000000       0.00000000       0.00000000 </v>
   <v>       0.00000000       0.00000000       0.00000000 </v>
   <v>       0.00000000       0.00000000       0.00000000 </v>
   <v>       0.00000000       0.00000000       0.00000000 </v>
   <v>       0.00000000       0.00000000       0.00000000 </v>
   <v>       0.00000000       0.00000000       0.00000000 </v>
   <v>       0.00000000       0.00000000       0.00000000 </v>
   <v>       0.00000000       0.00000000       0.00000000 </v>
   <v>       0.00000000       0.00000000       0.00000000 </v>
   <v>       0.00000000       0.00000000       0.00000000 </v>
   <v>       0.00000000       0.00000000       0.00000000 </v>
   <v>       0.00000000       0.00000000       0.00000000 </v>
   <v>       0.00000000       0.00000000       0.00000000 </v>
   <v>       0.00000000       0.00000000       0.00000000 </v>
   <v>       0.00000000       0.00000000       0.00000000 </v>
  </varray>
 </structure>
 <calculation>
  <scstep>
   <time name="dav">   47.57   47.58</time>
   <time name="total">   48.54   48.55</time>
   <energy>
    <i name="alphaZ">    871.83850952 </i>
    <i name="ewald"> 285726.66937450 </i>
    <i name="hartreedc">-340087.19768562 </i>
    <i name="XCdc">   3042.53202429 </i>
    <i name="pawpsdc">  50525.51240023 </i>
    <i name="pawaedc"> -50422.77561733 </i>
    <i name="eentropy">     -0.06878912 </i>
    <i name="bandstr">   -209.70775187 </i>
    <i name="atom">  64207.43592568 </i>
    <i name="e_fr_energy">  13654.23839028 </i>
    <i name="e_wo_entrp">  13654.30717941 </i>
    <i name="e_0_energy">  13654.27278484 </i>
   </energy>
  </scstep>
  <scstep>
   <time name="dav">   51.04   51.06</time>
   <time name="total">   51.04   51.06</time>
   <energy>
    <i name="e_fr_energy">   2489.61530266 </i>
    <i name="e_wo_entrp">   2489.67435172 </i>
    <i name="e_0_energy">   2489.64482719 </i>
   </energy>
  </scstep>
  <scstep>
   <time name="dav">   68.76   68.77</time>
   <time name="total">   68.76   68.77</time>
   <energy>
    <i name="e_fr_energy">   -382.82789293 </i>
    <i name="e_wo_entrp">   -382.82789293 </i>
    <i name="e_0_energy">   -382.82789293 </i>
   </energy>
  </scstep>
  <scstep>
   <time name="dav">   62.45   62.46</time>
   <time name="total">   62.45   62.46</time>
   <energy>
    <i name="e_fr_energy">   -739.67641756 </i>
    <i name="e_wo_entrp">   -739.67641756 </i>
    <i name="e_0_energy">   -739.67641756 </i>
   </energy>
  </scstep>
  <scstep>
   <time name="dav">   62.58   62.59</time>
   <time name="total">   66.23   66.24</time>
   <energy>
    <i name="e_fr_energy">   -754.10983298 </i>
    <i name="e_wo_entrp">   -754.10983298 </i>
    <i name="e_0_energy">   -754.10983298 </i>
   </energy>
  </scstep>
  <scstep>
   <time name="dav">   59.10   59.12</time>
   <time name="total">   63.63   63.65</time>
   <energy>
    <i name="e_fr_energy">   -598.39718789 </i>
    <i name="e_wo_entrp">   -598.39718789 </i>
    <i name="e_0_energy">   -598.39718789 </i>
   </energy>
  </scstep>
  <scstep>
   <time name="dav">   61.37   61.37</time>
   <time name="total">   65.87   65.90</time>
   <energy>
    <i name="e_fr_energy">   -598.26426050 </i>
    <i name="e_wo_entrp">   -598.26426050 </i>
    <i name="e_0_energy">   -598.26426050 </i>
   </energy>
  </scstep>
  <scstep>
   <time name="dav">   57.65   57.65</time>
   <time name="total">   62.08   62.09</time>
   <energy>
    <i name="e_fr_energy">   -596.66347401 </i>
    <i name="e_wo_entrp">   -596.66347401 </i>
    <i name="e_0_energy">   -596.66347401 </i>
   </energy>
  </scstep>
  <scstep>
   <time name="dav">   57.16   57.16</time>
   <time name="total">   61.60   61.62</time>
   <energy>
    <i name="e_fr_energy">   -596.15502183 </i>
    <i name="e_wo_entrp">   -596.15502183 </i>
    <i name="e_0_energy">   -596.15502183 </i>
   </energy>
  </scstep>
  <scstep>
   <time name="dav">   62.10   62.11</time>
   <time name="total">   66.54   66.55</time>
   <energy>
    <i name="e_fr_energy">   -596.11421644 </i>
    <i name="e_wo_entrp">   -596.11421644 </i>
    <i name="e_0_energy">   -596.11421644 </i>
   </energy>
  </scstep>
  <scstep>
   <time name="dav">   58.32   58.32</time>
   <time name="total">   62.79   62.80</time>
   <energy>
    <i name="e_fr_energy">   -595.98942502 </i>
    <i name="e_wo_entrp">   -595.98942502 </i>
    <i name="e_0_energy">   -595.98942502 </i>
   </energy>
  </scstep>
  <scstep>
   <time name="dav">   60.43   60.43</time>
   <time name="total">   64.90   64.91</time>
   <energy>
    <i name="e_fr_energy">   -595.96062130 </i>
    <i name="e_wo_entrp">   -595.96062130 </i>
    <i name="e_0_energy">   -595.96062130 </i>
   </energy>
  </scstep>
  <scstep>
   <time name="dav">   58.66   58.66</time>
   <time name="total">   63.06   63.08</time>
   <energy>
    <i name="e_fr_energy">   -595.94976776 </i>
    <i name="e_wo_entrp">   -595.94976776 </i>
    <i name="e_0_energy">   -595.94976776 </i>
   </energy>
  </scstep>
  <scstep>
   <time name="dav">   59.43   59.43</time>
   <time name="total">   63.91   63.92</time>
   <energy>
    <i name="e_fr_energy">   -595.94581843 </i>
    <i name="e_wo_entrp">   -595.94581843 </i>
    <i name="e_0_energy">   -595.94581843 </i>
   </energy>
  </scstep>
  <scstep>
   <time name="dav">   59.49   59.49</time>
   <time name="total">   63.98   63.99</time>
   <energy>
    <i name="e_fr_energy">   -595.95115775 </i>
    <i name="e_wo_entrp">   -595.95115775 </i>
    <i name="e_0_energy">   -595.95115775 </i>
   </energy>
  </scstep>
  <scstep>
   <time name="dav">   56.67   56.67</time>
   <time name="total">   61.24   61.25</time>
   <energy>
    <i name="e_fr_energy">   -595.95470374 </i>
    <i name="e_wo_entrp">   -595.95470374 </i>
    <i name="e_0_energy">   -595.95470374 </i>
   </energy>
  </scstep>
  <scstep>
   <time name="dav">   59.34   59.34</time>
   <time name="total">   63.89   63.90</time>
   <energy>
    <i name="e_fr_energy">   -595.95960523 </i>
    <i name="e_wo_entrp">   -595.95960523 </i>
    <i name="e_0_energy">   -595.95960523 </i>
   </energy>
  </scstep>
  <scstep>
   <time name="dav">   57.35   57.35</time>
   <time name="total">   61.92   61.93</time>
   <energy>
    <i name="e_fr_energy">   -595.96360606 </i>
    <i name="e_wo_entrp">   -595.96360606 </i>
    <i name="e_0_energy">   -595.96360606 </i>
   </energy>
  </scstep>
  <scstep>
   <time name="dav">   59.62   59.62</time>
   <time name="total">   64.13   64.14</time>
   <energy>
    <i name="e_fr_energy">   -595.96524676 </i>
    <i name="e_wo_entrp">   -595.96524676 </i>
    <i name="e_0_energy">   -595.96524676 </i>
   </energy>
  </scstep>
  <scstep>
   <time name="dav">   56.61   56.61</time>
   <time name="total">   61.04   61.05</time>
   <energy>
    <i name="e_fr_energy">   -595.96792657 </i>
    <i name="e_wo_entrp">   -595.96792657 </i>
    <i name="e_0_energy">   -595.96792657 </i>
   </energy>
  </scstep>
  <scstep>
   <time name="dav">   50.95   50.95</time>
   <time name="total">   55.40   55.41</time>
   <energy>
    <i name="e_fr_energy">   -595.97034531 </i>
    <i name="e_wo_entrp">   -595.97034531 </i>
    <i name="e_0_energy">   -595.97034531 </i>
   </energy>
  </scstep>
  <scstep>
   <time name="dav">   45.87   45.87</time>
   <time name="total">   50.32   50.32</time>
   <energy>
    <i name="e_fr_energy">   -595.97215229 </i>
    <i name="e_wo_entrp">   -595.97215229 </i>
    <i name="e_0_energy">   -595.97215229 </i>
   </energy>
  </scstep>
  <scstep>
   <time name="dav">   51.47   51.47</time>
   <time name="total">   56.03   56.05</time>
   <energy>
    <i name="e_fr_energy">   -595.97260639 </i>
    <i name="e_wo_entrp">   -595.97260639 </i>
    <i name="e_0_energy">   -595.97260639 </i>
   </energy>
  </scstep>
  <scstep>
   <time name="dav">   48.14   48.14</time>
   <time name="total">   52.64   52.65</time>
   <energy>
    <i name="e_fr_energy">   -595.97294805 </i>
    <i name="e_wo_entrp">   -595.97294805 </i>
    <i name="e_0_energy">   -595.97294805 </i>
   </energy>
  </scstep>
  <scstep>
   <time name="dav">   46.98   46.98</time>
   <time name="total">   51.45   51.47</time>
   <energy>
    <i name="e_fr_energy">   -595.97316910 </i>
    <i name="e_wo_entrp">   -595.97316910 </i>
    <i name="e_0_energy">   -595.97316910 </i>
   </energy>
  </scstep>
  <scstep>
   <time name="dav">   41.36   41.37</time>
   <time name="total">   45.86   45.87</time>
   <energy>
    <i name="e_fr_energy">   -595.97328369 </i>
    <i name="e_wo_entrp">   -595.97328369 </i>
    <i name="e_0_energy">   -595.97328369 </i>
   </energy>
  </scstep>
  <scstep>
   <time name="dav">   34.66   34.66</time>
   <time name="total">   39.24   39.25</time>
   <energy>
    <i name="e_fr_energy">   -595.97331533 </i>
    <i name="e_wo_entrp">   -595.97331533 </i>
    <i name="e_0_energy">   -595.97331533 </i>
   </energy>
  </scstep>
  <scstep>
   <time name="dav">   33.92   33.92</time>
   <time name="total">   38.42   38.42</time>
   <energy>
    <i name="e_fr_energy">   -595.97333467 </i>
    <i name="e_wo_entrp">   -595.97333467 </i>
    <i name="e_0_energy">   -595.97333467 </i>
   </energy>
  </scstep>
  <scstep>
   <time name="dav">   33.78   33.78</time>
   <time name="total">   38.23   38.24</time>
   <energy>
    <i name="e_fr_energy">   -595.97334521 </i>
    <i name="e_wo_entrp">   -595.97334521 </i>
    <i name="e_0_energy">   -595.97334521 </i>
   </energy>
  </scstep>
  <scstep>
   <time name="dav">   33.47   33.47</time>
   <time name="total">   37.99   38.00</time>
   <energy>
    <i name="e_fr_energy">   -595.97335195 </i>
    <i name="e_wo_entrp">   -595.97335195 </i>
    <i name="e_0_energy">   -595.97335195 </i>
   </energy>
  </scstep>
  <scstep>
   <time name="dav">   32.83   32.83</time>
   <time name="total">   37.28   37.29</time>
   <energy>
    <i name="e_fr_energy">   -595.97335446 </i>
    <i name="e_wo_entrp">   -595.97335446 </i>
    <i name="e_0_energy">   -595.97335446 </i>
   </energy>
  </scstep>
  <scstep>
   <time name="dav">   32.43   32.43</time>
   <time name="total">   33.22   33.22</time>
   <energy>
    <i name="alphaZ">    871.83850952 </i>
    <i name="ewald"> 285726.66937450 </i>
    <i name="hartreedc">-341306.59373518 </i>
    <i name="XCdc">   3053.84277572 </i>
    <i name="pawpsdc">  66137.30576898 </i>
    <i name="pawaedc"> -66129.81175292 </i>
    <i name="eentropy">     -0.00000000 </i>
    <i name="bandstr"> -13156.66022142 </i>
    <i name="atom">  64207.43592568 </i>
    <i name="e_fr_energy">   -595.97335511 </i>
    <i name="e_wo_entrp">   -595.97335511 </i>
    <i name="e_0_energy">   -595.97335511 </i>
   </energy>
  </scstep>
  <structure>
   <crystal>
    <varray name="basis" >
     <v>      13.12862340       0.00000000       0.00000000 </v>
     <v>      -6.56431170      11.36972138       0.00000000 </v>
     <v>       0.00000000       0.00000000      26.82809424 </v>
    </varray>
    <i name="volume">   4004.59716953 </i>
    <varray name="rec_basis" >
     <v>       0.07616945       0.04397645       0.00000000 </v>
     <v>       0.00000000       0.08795290       0.00000000 </v>
     <v>       0.00000000       0.00000000       0.03727436 </v>
    </varray>
   </crystal>
   <varray name="positions" >
    <v>       0.07613043       0.16463682       0.45194673 </v>
    <v>       0.08338095       0.42052953       0.45534127 </v>
    <v>       0.08189711       0.66855085       0.45507071 </v>
    <v>       0.08698877       0.92572587       0.45070454 </v>
    <v>       0.33508524       0.16142564       0.45212530 </v>
    <v>       0.32447697       0.40938946       0.45239809 </v>
    <v>       0.33293028       0.65996503       0.45314518 </v>
    <v>       0.33140730       0.91235045       0.45623632 </v>
    <v>       0.57917016       0.16560795       0.45325357 </v>
    <v>       0.58240655       0.41009890       0.44986164 </v>
    <v>       0.57943907       0.66388110       0.45046477 </v>
    <v>       0.56913166       0.91105675       0.45432907 </v>
    <v>       0.82679245       0.17188490       0.44314728 </v>
    <v>       0.83158237       0.42158559       0.45038534 </v>
    <v>       0.83972705       0.66365257       0.45765385 </v>
    <v>       0.82894601       0.91472299       0.44635912 </v>
    <v>       0.16666663       0.08199410       0.54650601 </v>
    <v>       0.17066528       0.33000581       0.54863190 </v>
    <v>       0.16863810       0.57982787       0.54869955 </v>
    <v>       0.16564611       0.83527546       0.54638854 </v>
    <v>       0.41427299       0.08197091       0.54960522 </v>
    <v>       0.43269764       0.34218996       0.54659193 </v>
    <v>       0.41772809       0.57933250       0.54727488 </v>
    <v>       0.41702195       0.81987126       0.55448334 </v>
    <v>       0.67147105       0.08539639       0.54714730 </v>
    <v>       0.66727679       0.32449824       0.55030212 </v>
    <v>       0.67114163       0.58702995       0.54901588 </v>
    <v>       0.66394845       0.83915612       0.54446122 </v>
    <v>       0.90780016       0.07953107       0.54600913 </v>
    <v>       0.91952023       0.33612504       0.54808981 </v>
    <v>       0.91047311       0.57984095       0.54895751 </v>
    <v>       0.91349256       0.84045947       0.54630581 </v>
    <v>       0.06850554       0.16637470       0.58735302 </v>
    <v>       0.09228146       0.42922932       0.59135680 </v>
    <v>       0.08202980       0.66984222       0.58839028 </v>
    <v>       0.08276391       0.92005285       0.58904959 </v>
    <v>       0.33224719       0.16855818       0.59168067 </v>
    <v>       0.32585126       0.41425089       0.59281266 </v>
    <v>       0.33331230       0.66162692       0.59342519 </v>
    <v>       0.32802312       0.90908775       0.58932563 </v>
    <v>       0.57945045       0.16404235       0.59330157 </v>
    <v>       0.60388016       0.42536824       0.59729160 </v>
    <v>       0.59334485       0.66918655       0.58740893 </v>
    <v>       0.58116599       0.92893972       0.59556446 </v>
    <v>       0.83791903       0.16057534       0.59164095 </v>
    <v>       0.84401278       0.41238644       0.59171211 </v>
    <v>       0.83906499       0.66531799       0.59168731 </v>
    <v>       0.84001705       0.92795228       0.58474806 </v>
    <v>       0.16888407       0.08867280       0.40607026 </v>
    <v>       0.17763143       0.34340563       0.40983410 </v>
    <v>       0.16343744       0.57479165       0.41325951 </v>
    <v>       0.17966247       0.83473097       0.40794457 </v>
    <v>       0.40832990       0.07626791       0.41640205 </v>
    <v>       0.42368534       0.35134257       0.41331903 </v>
    <v>       0.41536388       0.59531522       0.40625858 </v>
    <v>       0.41269592       0.82538637       0.40985116 </v>
    <v>       0.67542839       0.09151350       0.40574797 </v>
    <v>       0.65383336       0.33151205       0.40690838 </v>
    <v>       0.69012422       0.56700433       0.40801149 </v>
    <v>       0.65951571       0.82963002       0.40585252 </v>
    <v>       0.90577958       0.07680065       0.41145910 </v>
    <v>       0.91522558       0.33615340       0.40644058 </v>
    <v>       0.92321944       0.59469553       0.40353888 </v>
    <v>       0.92829385       0.83806455       0.41001253 </v>
    <v>       0.00288293       0.01181481       0.49932667 </v>
    <v>       0.00517563       0.25450470       0.49591577 </v>
    <v>       0.00401914       0.50709074       0.50026272 </v>
    <v>       0.99689056       0.75599053       0.50073560 </v>
    <v>       0.24688100       0.99708797       0.49999619 </v>
    <v>       0.24772496       0.25523997       0.50119776 </v>
    <v>       0.25552898       0.49861506       0.50331273 </v>
    <v>       0.25384642       0.75183630       0.50646275 </v>
    <v>       0.49667125       0.00826975       0.50208922 </v>
    <v>       0.49655884       0.25534562       0.50059487 </v>
    <v>       0.51598462       0.50982016       0.50223732 </v>
    <v>       0.49666685       0.74669759       0.50097536 </v>
    <v>       0.73670509       0.98660770       0.49738221 </v>
    <v>       0.75923279       0.25558430       0.49544861 </v>
    <v>       0.75063555       0.49288616       0.49816391 </v>
    <v>       0.75175988       0.75794383       0.49625658 </v>
   </varray>
  </structure>
  <varray name="forces" >
   <v>       0.38143795       0.79395731       0.14795041 </v>
   <v>       0.18811072      -0.60781596      -0.33068056 </v>
   <v>       0.29724546       0.14362074      -0.40891113 </v>
   <v>      -0.14977051      -0.87189455       0.26315382 </v>
   <v>      -1.46037184       0.76484039       0.84719668 </v>
   <v>       0.45504320       0.52703532       0.73756164 </v>
   <v>      -0.71525824       0.30881246       0.55071700 </v>
   <v>       0.01606295      -0.56463612       0.11992365 </v>
   <v>       0.47254927      -0.01716579       0.33462685 </v>
   <v>       0.19038579       1.62124773       0.91496744 </v>
   <v>       0.64376310       0.35498339       0.39899808 </v>
   <v>       0.88945418       0.26951780      -0.18736558 </v>
   <v>       1.26958246       0.35523313       1.84769217 </v>
   <v>       0.56700736      -0.03120642      -0.00929825 </v>
   <v>      -1.16591260       0.48638838      -1.89017877 </v>
   <v>      -0.13594700      -0.84948268       1.05313133 </v>
   <v>      -0.48291412       0.68456440       0.08333385 </v>
   <v>      -0.68283804       0.09099847      -0.04020923 </v>
   <v>      -0.56024568       0.79016025       0.05724501 </v>
   <v>      -0.06425192      -0.64734628       0.84324478 </v>
   <v>      -0.05055509      -0.21562131       0.20685194 </v>
   <v>      -1.54408212      -0.53967889       0.69849048 </v>
   <v>       0.32273014      -0.26953910       0.23901345 </v>
   <v>      -1.43318908       0.98361103      -0.89570468 </v>
   <v>      -0.51068000      -0.50709258      -0.63535389 </v>
   <v>      -0.19619881       1.16972297      -0.93493655 </v>
   <v>       0.02974774      -0.08969068      -0.51193064 </v>
   <v>       0.86646692      -0.97916443       0.15515448 </v>
   <v>       0.74817330       1.29830838      -1.44202715 </v>
   <v>       0.83485606      -0.20378472      -1.11843454 </v>
   <v>       0.91476303       0.40583401      -0.14764300 </v>
   <v>       0.78341583      -0.33826812      -0.57117294 </v>
   <v>       0.52300270      -0.08012027       0.46740410 </v>
   <v>      -0.24669762      -0.86899043       0.17152187 </v>
   <v>      -0.05962587      -0.20725466       0.25536615 </v>
   <v>      -0.10791697       0.03512255       0.08520601 </v>
   <v>       0.12417718      -0.00363263      -0.32268067 </v>
   <v>       0.58912934       0.25801662      -0.15529714 </v>
   <v>       0.25470522      -0.04907521       0.10648639 </v>
   <v>       0.08174225       0.54148405       0.39004170 </v>
   <v>       0.23882180       0.17394990      -0.31548702 </v>
   <v>      -0.26146571      -0.30597033      -0.97065304 </v>
   <v>      -0.37505602       0.27371949       0.59536933 </v>
   <v>       0.39230950      -0.30646152      -0.54247812 </v>
   <v>      -0.64933779       0.39038355      -0.32786315 </v>
   <v>      -0.70875357       0.05317676       0.04253732 </v>
   <v>      -0.41471837       0.26479629      -0.08452083 </v>
   <v>      -0.39248535      -0.87707341       1.11217363 </v>
   <v>       0.20322665      -0.06712212       0.39174320 </v>
   <v>      -0.52896015      -0.29926693      -0.34864852 </v>
   <v>      -0.00532311       0.74850260      -0.34607315 </v>
   <v>      -0.35709205      -0.02526581       0.50507415 </v>
   <v>       0.49045990       0.28235908      -1.23357823 </v>
   <v>      -0.03494480      -0.81701341      -0.84042865 </v>
   <v>       0.48947333      -0.39445816       0.33985931 </v>
   <v>      -0.21245371       0.23974473       0.25730150 </v>
   <v>      -1.12771042      -0.54814077      -0.20826317 </v>
   <v>       0.66458635      -0.50116405      -0.00327038 </v>
   <v>      -0.97883529       0.33874198       0.02677151 </v>
   <v>      -0.00175674       0.04377972       0.30923100 </v>
   <v>       0.22618388       0.57832670      -0.95353817 </v>
   <v>       0.05173986       0.13958271      -0.00397677 </v>
   <v>       0.25460065      -0.23085867       1.18763954 </v>
   <v>      -0.46445175       0.03425229      -0.18017361 </v>
   <v>       0.33895431      -1.26997370      -0.36789495 </v>
   <v>      -1.10334082      -0.32519584       0.79172502 </v>
   <v>      -0.22483668      -0.65903762       0.13119011 </v>
   <v>       0.98079694      -0.21356514       0.00140525 </v>
   <v>      -0.00802817       0.88454811      -0.05570054 </v>
   <v>       1.27423101      -0.57154818      -0.47022355 </v>
   <v>      -0.47655380       0.35664103      -0.83189940 </v>
   <v>       0.06418386      -0.23387197      -1.35393570 </v>
   <v>       1.25734754      -0.34246737      -0.41264162 </v>
   <v>       1.28856778      -0.93660523      -0.01490800 </v>
   <v>      -0.82032181      -0.68059323      -0.46508361 </v>
   <v>      -0.04718142       0.19891180       0.01631675 </v>
   <v>      -0.28355470       1.74466665       0.08839989 </v>
   <v>      -1.03107127      -0.66068490       1.19571871 </v>
   <v>       0.15825865       0.23594376       1.38894773 </v>
   <v>       0.25739488      -0.65768735       0.57638162 </v>
  </varray>
  <varray name="stress" >
   <v>       2.64707612      -0.13131139      -1.23142295 </v>
   <v>      -0.13131143       3.31546914      -0.55210881 </v>
   <v>      -1.23142295      -0.55210882      -4.89775934 </v>
  </varray>
  <energy>
   <i name="e_fr_energy">   -595.97335511 </i>
   <i name="e_wo_entrp">   -595.97335511 </i>
   <i name="e_0_energy">     -0.00000000 </i>
  </energy>
  <time name="totalsc"> 1849.25 1849.65</time>
  <eigenvalues>
   <array>
    <dimension dim="1">band</dimension>
    <dimension dim="2">kpoint</dimension>
    <dimension dim="3">spin</dimension>
    <field>eigene</field>
    <field>occ</field>
    <set>
     <set comment="spin 1">
      <set comment="kpoint 1">
       <r>  -51.9566    1.0000 </r>
       <r>  -51.8247    1.0000 </r>
       <r>  -51.7381    1.0000 </r>
       <r>  -51.7356    1.0000 </r>
       <r>  -51.7068    1.0000 </r>
       <r>  -51.6641    1.0000 </r>
       <r>  -51.6106    1.0000 </r>
       <r>  -51.6087    1.0000 </r>
       <r>  -51.6041    1.0000 </r>
       <r>  -51.5929    1.0000 </r>
       <r>  -51.5437    1.0000 </r>
       <r>  -51.4777    1.0000 </r>
       <r>  -51.4537    1.0000 </r>
       <r>  -51.4509    1.0000 </r>
       <r>  -51.4311    1.0000 </r>
       <r>  -51.4212    1.0000 </r>
       <r>  -51.3961    1.0000 </r>
       <r>  -51.3942    1.0000 </r>
       <r>  -51.3778    1.0000 </r>
       <r>  -51.3659    1.0000 </r>
       <r>  -51.3653    1.0000 </r>
       <r>  -51.3514    1.0000 </r>
       <r>  -51.3395    1.0000 </r>
       <r>  -51.2507    1.0000 </r>
       <r>  -51.2484    1.0000 </r>
       <r>  -51.2141    1.0000 </r>
       <r>  -51.1215    1.0000 </r>
       <r>  -51.1084    1.0000 </r>
       <r>  -51.0785    1.0000 </r>
       <r>  -51.0651    1.0000 </r>
       <r>  -51.0361    1.0000 </r>
       <r>  -50.8920    1.0000 </r>
       <r>  -30.8862    1.0000 </r>
       <r>  -30.8293    1.0000 </r>
       <r>  -30.7972    1.0000 </r>
       <r>  -30.7616    1.0000 </r>
       <r>  -30.7551    1.0000 </r>
       <r>  -30.7047    1.0000 </r>
       <r>  -30.6626    1.0000 </r>
       <r>  -30.6622    1.0000 </r>
       <r>  -30.6206    1.0000 </r>
       <r>  -30.5956    1.0000 </r>
       <r>  -30.5850    1.0000 </r>
       <r>  -30.5605    1.0000 </r>
       <r>  -30.5281    1.0000 </r>
       <r>  -30.5174    1.0000 </r>
       <r>  -30.4966    1.0000 </r>
       <r>  -30.4854    1.0000 </r>
       <r>  -30.4742    1.0000 </r>
       <r>  -30.4611    1.0000 </r>
       <r>  -30.4511    1.0000 </r>
       <r>  -30.4375    1.0000 </r>
       <r>  -30.4168    1.0000 </r>
       <r>  -30.4039    1.0000 </r>
       <r>  -30.3956    1.0000 </r>
       <r>  -30.3880    1.0000 </r>
       <r>  -30.3813    1.0000 </r>
       <r>  -30.3725    1.0000 </r>
       <r>  -30.3614    1.0000 </r>
       <r>  -30.3453    1.0000 </r>
       <r>  -30.3426    1.0000 </r>
       <r>  -30.3366    1.0000 </r>
       <r>  -30.3272    1.0000 </r>
       <r>  -30.3250    1.0000 </r>
       <r>  -30.2996    1.0000 </r>
       <r>  -30.2984    1.0000 </r>
       <r>  -30.2845    1.0000 </r>
       <r>  -30.2821    1.0000 </r>
       <r>  -30.2751    1.0000 </r>
       <r>  -30.2693    1.0000 </r>
       <r>  -30.2630    1.0000 </r>
       <r>  -30.2453    1.0000 </r>
       <r>  -30.2430    1.0000 </r>
       <r>  -30.2413    1.0000 </r>
       <r>  -30.2325    1.0000 </r>
       <r>  -30.2225    1.0000 </r>
       <r>  -30.2072    1.0000 </r>
       <r>  -30.1975    1.0000 </r>
       <r>  -30.1863    1.0000 </r>
       <r>  -30.1701    1.0000 </r>
       <r>  -30.1609    1.0000 </r>
       <r>  -30.1554    1.0000 </r>
       <r>  -30.1532    1.0000 </r>
       <r>  -30.1381    1.0000 </r>
       <r>  -30.1311    1.0000 </r>
       <r>  -30.1000    1.0000 </r>
       <r>  -30.0937    1.0000 </r>
       <r>  -30.0877    1.0000 </r>
       <r>  -30.0796    1.0000 </r>
       <r>  -30.0738    1.0000 </r>
       <r>  -30.0602    1.0000 </r>
       <r>  -30.0545    1.0000 </r>
       <r>  -30.0467    1.0000 </r>
       <r>  -30.0375    1.0000 </r>
       <r>  -30.0347    1.0000 </r>
       <r>  -30.0244    1.0000 </r>
       <r>  -30.0163    1.0000 </r>
       <r>  -30.0115    1.0000 </r>
       <r>  -30.0019    1.0000 </r>
       <r>  -29.9979    1.0000 </r>
       <r>  -29.9964    1.0000 </r>
       <r>  -29.9813    1.0000 </r>
       <r>  -29.9777    1.0000 </r>
       <r>  -29.9583    1.0000 </r>
       <r>  -29.9488    1.0000 </r>
       <r>  -29.9415    1.0000 </r>
       <r>  -29.9370    1.0000 </r>
       <r>  -29.9173    1.0000 </r>
       <r>  -29.8978    1.0000 </r>
       <r>  -29.8662    1.0000 </r>
       <r>  -29.8532    1.0000 </r>
       <r>  -29.8420    1.0000 </r>
       <r>  -29.8317    1.0000 </r>
       <r>  -29.8262    1.0000 </r>
       <r>  -29.8023    1.0000 </r>
       <r>  -29.7972    1.0000 </r>
       <r>  -29.7862    1.0000 </r>
       <r>  -29.7734    1.0000 </r>
       <r>  -29.7611    1.0000 </r>
       <r>  -29.7540    1.0000 </r>
       <r>  -29.7424    1.0000 </r>
       <r>  -29.7326    1.0000 </r>
       <r>  -29.7262    1.0000 </r>
       <r>  -29.7033    1.0000 </r>
       <r>  -29.6554    1.0000 </r>
       <r>  -29.6327    1.0000 </r>
       <r>  -29.5858    1.0000 </r>
       <r>  -29.5697    1.0000 </r>
       <r>  -27.2147    1.0000 </r>
       <r>  -27.0419    1.0000 </r>
       <r>  -27.0133    1.0000 </r>
       <r>  -26.8924    1.0000 </r>
       <r>  -26.8802    1.0000 </r>
       <r>  -26.8426    1.0000 </r>
       <r>  -26.8053    1.0000 </r>
       <r>  -26.7836    1.0000 </r>
       <r>  -26.7565    1.0000 </r>
       <r>  -26.6801    1.0000 </r>
       <r>  -26.6285    1.0000 </r>
       <r>  -26.5858    1.0000 </r>
       <r>  -26.5675    1.0000 </r>
       <r>  -26.5517    1.0000 </r>
       <r>  -26.5420    1.0000 </r>
       <r>  -26.5348    1.0000 </r>
       <r>  -26.5299    1.0000 </r>
       <r>  -26.5144    1.0000 </r>
       <r>  -26.4938    1.0000 </r>
       <r>  -26.4638    1.0000 </r>
       <r>  -26.4557    1.0000 </r>
       <r>  -26.4384    1.0000 </r>
       <r>  -26.3982    1.0000 </r>
       <r>  -26.3917    1.0000 </r>
       <r>  -26.3674    1.0000 </r>
       <r>  -26.3445    1.0000 </r>
       <r>  -26.3425    1.0000 </r>
       <r>  -26.2391    1.0000 </r>
       <r>  -26.1996    1.0000 </r>
       <r>  -26.1981    1.0000 </r>
       <r>  -25.9690    1.0000 </r>
       <r>  -25.8922    1.0000 </r>
       <r>  -12.0152    1.0000 </r>
       <r>  -11.6698    1.0000 </r>
       <r>  -11.6145    1.0000 </r>
       <r>  -11.5544    1.0000 </r>
       <r>  -11.5444    1.0000 </r>
       <r>  -11.4718    1.0000 </r>
       <r>  -11.4289    1.0000 </r>
       <r>  -11.0980    1.0000 </r>
       <r>  -11.0447    1.0000 </r>
       <r>  -10.9743    1.0000 </r>
       <r>  -10.9378    1.0000 </r>
       <r>  -10.8850    1.0000 </r>
       <r>  -10.8574    1.0000 </r>
       <r>  -10.8182    1.0000 </r>
       <r>  -10.7868    1.0000 </r>
       <r>  -10.7330    1.0000 </r>
       <r>   -9.5941    1.0000 </r>
       <r>   -9.5667    1.0000 </r>
       <r>   -9.4495    1.0000 </r>
       <r>   -9.3902    1.0000 </r>
       <r>   -9.3592    1.0000 </r>
       <r>   -9.3030    1.0000 </r>
       <r>   -9.2637    1.0000 </r>
       <r>   -9.1733    1.0000 </r>
       <r>   -9.1632    1.0000 </r>
       <r>   -9.1269    1.0000 </r>
       <r>   -9.1245    1.0000 </r>
       <r>   -9.0967    1.0000 </r>
       <r>   -9.0542    1.0000 </r>
       <r>   -9.0489    1.0000 </r>
       <r>   -9.0031    1.0000 </r>
       <r>   -8.9922    1.0000 </r>
       <r>   -8.9667    1.0000 </r>
       <r>   -8.9457    1.0000 </r>
       <r>   -8.9318    1.0000 </r>
       <r>   -8.9019    1.0000 </r>
       <r>   -8.8980    1.0000 </r>
       <r>   -8.8698    1.0000 </r>
       <r>   -8.8470    1.0000 </r>
       <r>   -8.8289    1.0000 </r>
       <r>   -8.8104    1.0000 </r>
       <r>   -8.7936    1.0000 </r>
       <r>   -8.7796    1.0000 </r>
       <r>   -8.7743    1.0000 </r>
       <r>   -8.7406    1.0000 </r>
       <r>   -8.7188    1.0000 </r>
       <r>   -8.7093    1.0000 </r>
       <r>   -8.6953    1.0000 </r>
       <r>   -8.6878    1.0000 </r>
       <r>   -8.6652    1.0000 </r>
       <r>   -8.6438    1.0000 </r>
       <r>   -8.6237    1.0000 </r>
       <r>   -8.6169    1.0000 </r>
       <r>   -8.6019    1.0000 </r>
       <r>   -8.5874    1.0000 </r>
       <r>   -8.5727    1.0000 </r>
       <r>   -8.5604    1.0000 </r>
       <r>   -8.5584    1.0000 </r>
       <r>   -8.5278    1.0000 </r>
       <r>   -8.5220    1.0000 </r>
       <r>   -8.5031    1.0000 </r>
       <r>   -8.4943    1.0000 </r>
       <r>   -8.4915    1.0000 </r>
       <r>   -8.4727    1.0000 </r>
       <r>   -8.4661    1.0000 </r>
       <r>   -8.4516    1.0000 </r>
       <r>   -8.4488    1.0000 </r>
       <r>   -8.4288    1.0000 </r>
       <r>   -8.4188    1.0000 </r>
       <r>   -8.3957    1.0000 </r>
       <r>   -8.3914    1.0000 </r>
       <r>   -8.3798    1.0000 </r>
       <r>   -8.3729    1.0000 </r>
       <r>   -8.3507    1.0000 </r>
       <r>   -8.3423    1.0000 </r>
       <r>   -8.3292    1.0000 </r>
       <r>   -8.3250    1.0000 </r>
       <r>   -8.3109    1.0000 </r>
       <r>   -8.2996    1.0000 </r>
       <r>   -8.2961    1.0000 </r>
       <r>   -8.2882    1.0000 </r>
       <r>   -8.2786    1.0000 </r>
       <r>   -8.2653    1.0000 </r>
       <r>   -8.2497    1.0000 </r>
       <r>   -8.2388    1.0000 </r>
       <r>   -8.2243    1.0000 </r>
       <r>   -8.2148    1.0000 </r>
       <r>   -8.2090    1.0000 </r>
       <r>   -8.1922    1.0000 </r>
       <r>   -8.1770    1.0000 </r>
       <r>   -8.1626    1.0000 </r>
       <r>   -8.1425    1.0000 </r>
       <r>   -8.1400    1.0000 </r>
       <r>   -8.1091    1.0000 </r>
       <r>   -8.1015    1.0000 </r>
       <r>   -8.0811    1.0000 </r>
       <r>   -8.0720    1.0000 </r>
       <r>   -8.0609    1.0000 </r>
       <r>   -8.0447    1.0000 </r>
       <r>   -8.0383    1.0000 </r>
       <r>   -8.0252    1.0000 </r>
       <r>   -8.0116    1.0000 </r>
       <r>   -7.9917    1.0000 </r>
       <r>   -7.9769    1.0000 </r>
       <r>   -7.9573    1.0000 </r>
       <r>   -7.9434    1.0000 </r>
       <r>   -7.8707    1.0000 </r>
       <r>   -7.8220    1.0000 </r>
       <r>   -7.7528    1.0000 </r>
       <r>   -7.7028    1.0000 </r>
       <r>   -7.6523    1.0000 </r>
       <r>   -7.4440    1.0000 </r>
       <r>   -5.1595    1.0000 </r>
       <r>   -5.0871    1.0000 </r>
       <r>   -5.0455    1.0000 </r>
       <r>   -4.8587    1.0000 </r>
       <r>   -4.7851    1.0000 </r>
       <r>   -4.7800    1.0000 </r>
       <r>   -4.7483    1.0000 </r>
       <r>   -4.6883    1.0000 </r>
       <r>   -4.6626    1.0000 </r>
       <r>   -4.5058    1.0000 </r>
       <r>   -4.3600    1.0000 </r>
       <r>   -4.3093    1.0000 </r>
       <r>   -4.2714    1.0000 </r>
       <r>   -4.2541    1.0000 </r>
       <r>   -4.2484    1.0000 </r>
       <r>   -4.1916    1.0000 </r>
       <r>   -4.1737    1.0000 </r>
       <r>   -4.1421    1.0000 </r>
       <r>   -4.1276    1.0000 </r>
       <r>   -4.1035    1.0000 </r>
       <r>   -4.0591    1.0000 </r>
       <r>   -4.0508    1.0000 </r>
       <r>   -4.0437    1.0000 </r>
       <r>   -4.0166    1.0000 </r>
       <r>   -3.9996    1.0000 </r>
       <r>   -3.9546    1.0000 </r>
       <r>   -3.9199    1.0000 </r>
       <r>   -3.9012    1.0000 </r>
       <r>   -3.8870    1.0000 </r>
       <r>   -3.8682    1.0000 </r>
       <r>   -3.8490    1.0000 </r>
       <r>   -3.7746    1.0000 </r>
       <r>   -3.7362    1.0000 </r>
       <r>   -3.6883    1.0000 </r>
       <r>   -3.6663    1.0000 </r>
       <r>   -3.6228    1.0000 </r>
       <r>   -3.5797    1.0000 </r>
       <r>   -3.2909    1.0000 </r>
       <r>   -3.2067    1.0000 </r>
       <r>   -3.1727    1.0000 </r>
       <r>   -3.1185    1.0000 </r>
       <r>   -3.0345    1.0000 </r>
       <r>   -3.0192    1.0000 </r>
       <r>   -2.9817    1.0000 </r>
       <r>   -2.9474    1.0000 </r>
       <r>   -2.8852    1.0000 </r>
       <r>   -2.7327    1.0000 </r>
       <r>   -2.7162    1.0000 </r>
       <r>   -1.8315    0.0000 </r>
       <r>   -1.7756    0.0000 </r>
       <r>   -1.7244    0.0000 </r>
       <r>   -1.2323    0.0000 </r>
       <r>   -1.1811    0.0000 </r>
       <r>   -1.1423    0.0000 </r>
       <r>   -1.1159    0.0000 </r>
       <r>   -1.0867    0.0000 </r>
       <r>   -1.0564    0.0000 </r>
       <r>   -0.5194    0.0000 </r>
       <r>   -0.4619    0.0000 </r>
       <r>   -0.3981    0.0000 </r>
       <r>   -0.3412    0.0000 </r>
       <r>   -0.3101    0.0000 </r>
       <r>   -0.2629    0.0000 </r>
       <r>   -0.2423    0.0000 </r>
       <r>   -0.2077    0.0000 </r>
       <r>   -0.1244    0.0000 </r>
       <r>   -0.1192    0.0000 </r>
       <r>   -0.0588    0.0000 </r>
       <r>   -0.0319    0.0000 </r>
       <r>    0.0010    0.0000 </r>
       <r>    0.0524    0.0000 </r>
       <r>    0.0838    0.0000 </r>
       <r>    0.3270    0.0000 </r>
       <r>    0.3399    0.0000 </r>
       <r>    0.3837    0.0000 </r>
       <r>    0.4223    0.0000 </r>
       <r>    0.4458    0.0000 </r>
       <r>    0.4679    0.0000 </r>
       <r>    0.5006    0.0000 </r>
       <r>    0.5244    0.0000 </r>
       <r>    0.5389    0.0000 </r>
       <r>    0.5610    0.0000 </r>
       <r>    0.5745    0.0000 </r>
       <r>    0.5859    0.0000 </r>
       <r>    0.6149    0.0000 </r>
       <r>    0.6318    0.0000 </r>
       <r>    0.6758    0.0000 </r>
       <r>    0.6808    0.0000 </r>
       <r>    0.7028    0.0000 </r>
       <r>    0.7472    0.0000 </r>
       <r>    0.7542    0.0000 </r>
       <r>    0.7701    0.0000 </r>
       <r>    0.7926    0.0000 </r>
       <r>    0.7998    0.0000 </r>
       <r>    0.8664    0.0000 </r>
       <r>    0.8969    0.0000 </r>
       <r>    0.9238    0.0000 </r>
       <r>    0.9587    0.0000 </r>
       <r>    0.9646    0.0000 </r>
       <r>    0.9824    0.0000 </r>
       <r>    0.9853    0.0000 </r>
       <r>    1.0121    0.0000 </r>
       <r>    1.0386    0.0000 </r>
       <r>    1.0443    0.0000 </r>
       <r>    1.0740    0.0000 </r>
       <r>    1.0993    0.0000 </r>
       <r>    1.1209    0.0000 </r>
       <r>    1.1380    0.0000 </r>
       <r>    1.1424    0.0000 </r>
       <r>    1.1552    0.0000 </r>
       <r>    1.1907    0.0000 </r>
       <r>    1.2391    0.0000 </r>
      </set>
      <set comment="kpoint 2">
       <r>  -51.9566    1.0000 </r>
       <r>  -51.8247    1.0000 </r>
       <r>  -51.7381    1.0000 </r>
       <r>  -51.7356    1.0000 </r>
       <r>  -51.7068    1.0000 </r>
       <r>  -51.6641    1.0000 </r>
       <r>  -51.6106    1.0000 </r>
       <r>  -51.6087    1.0000 </r>
       <r>  -51.6041    1.0000 </r>
       <r>  -51.5929    1.0000 </r>
       <r>  -51.5437    1.0000 </r>
       <r>  -51.4777    1.0000 </r>
       <r>  -51.4537    1.0000 </r>
       <r>  -51.4509    1.0000 </r>
       <r>  -51.4311    1.0000 </r>
       <r>  -51.4212    1.0000 </r>
       <r>  -51.3965    1.0000 </r>
       <r>  -51.3938    1.0000 </r>
       <r>  -51.3778    1.0000 </r>
       <r>  -51.3659    1.0000 </r>
       <r>  -51.3653    1.0000 </r>
       <r>  -51.3514    1.0000 </r>
       <r>  -51.3395    1.0000 </r>
       <r>  -51.2507    1.0000 </r>
       <r>  -51.2484    1.0000 </r>
       <r>  -51.2141    1.0000 </r>
       <r>  -51.1215    1.0000 </r>
       <r>  -51.1084    1.0000 </r>
       <r>  -51.0785    1.0000 </r>
       <r>  -51.0651    1.0000 </r>
       <r>  -51.0361    1.0000 </r>
       <r>  -50.8920    1.0000 </r>
       <r>  -30.8831    1.0000 </r>
       <r>  -30.8298    1.0000 </r>
       <r>  -30.7983    1.0000 </r>
       <r>  -30.7610    1.0000 </r>
       <r>  -30.7555    1.0000 </r>
       <r>  -30.6980    1.0000 </r>
       <r>  -30.6675    1.0000 </r>
       <r>  -30.6608    1.0000 </r>
       <r>  -30.6189    1.0000 </r>
       <r>  -30.5937    1.0000 </r>
       <r>  -30.5884    1.0000 </r>
       <r>  -30.5602    1.0000 </r>
       <r>  -30.5319    1.0000 </r>
       <r>  -30.5161    1.0000 </r>
       <r>  -30.4952    1.0000 </r>
       <r>  -30.4836    1.0000 </r>
       <r>  -30.4736    1.0000 </r>
       <r>  -30.4638    1.0000 </r>
       <r>  -30.4507    1.0000 </r>
       <r>  -30.4352    1.0000 </r>
       <r>  -30.4230    1.0000 </r>
       <r>  -30.4073    1.0000 </r>
       <r>  -30.3998    1.0000 </r>
       <r>  -30.3894    1.0000 </r>
       <r>  -30.3786    1.0000 </r>
       <r>  -30.3704    1.0000 </r>
       <r>  -30.3609    1.0000 </r>
       <r>  -30.3498    1.0000 </r>
       <r>  -30.3453    1.0000 </r>
       <r>  -30.3405    1.0000 </r>
       <r>  -30.3337    1.0000 </r>
       <r>  -30.3222    1.0000 </r>
       <r>  -30.3109    1.0000 </r>
       <r>  -30.3083    1.0000 </r>
       <r>  -30.2867    1.0000 </r>
       <r>  -30.2822    1.0000 </r>
       <r>  -30.2730    1.0000 </r>
       <r>  -30.2685    1.0000 </r>
       <r>  -30.2563    1.0000 </r>
       <r>  -30.2513    1.0000 </r>
       <r>  -30.2389    1.0000 </r>
       <r>  -30.2353    1.0000 </r>
       <r>  -30.2308    1.0000 </r>
       <r>  -30.2174    1.0000 </r>
       <r>  -30.2018    1.0000 </r>
       <r>  -30.1978    1.0000 </r>
       <r>  -30.1858    1.0000 </r>
       <r>  -30.1775    1.0000 </r>
       <r>  -30.1616    1.0000 </r>
       <r>  -30.1573    1.0000 </r>
       <r>  -30.1415    1.0000 </r>
       <r>  -30.1364    1.0000 </r>
       <r>  -30.1274    1.0000 </r>
       <r>  -30.1072    1.0000 </r>
       <r>  -30.0948    1.0000 </r>
       <r>  -30.0859    1.0000 </r>
       <r>  -30.0774    1.0000 </r>
       <r>  -30.0713    1.0000 </r>
       <r>  -30.0539    1.0000 </r>
       <r>  -30.0494    1.0000 </r>
       <r>  -30.0386    1.0000 </r>
       <r>  -30.0324    1.0000 </r>
       <r>  -30.0279    1.0000 </r>
       <r>  -30.0197    1.0000 </r>
       <r>  -30.0140    1.0000 </r>
       <r>  -30.0128    1.0000 </r>
       <r>  -30.0038    1.0000 </r>
       <r>  -29.9969    1.0000 </r>
       <r>  -29.9923    1.0000 </r>
       <r>  -29.9834    1.0000 </r>
       <r>  -29.9779    1.0000 </r>
       <r>  -29.9637    1.0000 </r>
       <r>  -29.9559    1.0000 </r>
       <r>  -29.9496    1.0000 </r>
       <r>  -29.9359    1.0000 </r>
       <r>  -29.9157    1.0000 </r>
       <r>  -29.9027    1.0000 </r>
       <r>  -29.8652    1.0000 </r>
       <r>  -29.8533    1.0000 </r>
       <r>  -29.8382    1.0000 </r>
       <r>  -29.8275    1.0000 </r>
       <r>  -29.8204    1.0000 </r>
       <r>  -29.7989    1.0000 </r>
       <r>  -29.7919    1.0000 </r>
       <r>  -29.7858    1.0000 </r>
       <r>  -29.7768    1.0000 </r>
       <r>  -29.7679    1.0000 </r>
       <r>  -29.7582    1.0000 </r>
       <r>  -29.7482    1.0000 </r>
       <r>  -29.7422    1.0000 </r>
       <r>  -29.7247    1.0000 </r>
       <r>  -29.7028    1.0000 </r>
       <r>  -29.6557    1.0000 </r>
       <r>  -29.6325    1.0000 </r>
       <r>  -29.5867    1.0000 </r>
       <r>  -29.5698    1.0000 </r>
       <r>  -27.2145    1.0000 </r>
       <r>  -27.0420    1.0000 </r>
       <r>  -27.0131    1.0000 </r>
       <r>  -26.8917    1.0000 </r>
       <r>  -26.8803    1.0000 </r>
       <r>  -26.8429    1.0000 </r>
       <r>  -26.8047    1.0000 </r>
       <r>  -26.7841    1.0000 </r>
       <r>  -26.7563    1.0000 </r>
       <r>  -26.6803    1.0000 </r>
       <r>  -26.6292    1.0000 </r>
       <r>  -26.5858    1.0000 </r>
       <r>  -26.5672    1.0000 </r>
       <r>  -26.5517    1.0000 </r>
       <r>  -26.5436    1.0000 </r>
       <r>  -26.5322    1.0000 </r>
       <r>  -26.5296    1.0000 </r>
       <r>  -26.5155    1.0000 </r>
       <r>  -26.4940    1.0000 </r>
       <r>  -26.4637    1.0000 </r>
       <r>  -26.4555    1.0000 </r>
       <r>  -26.4385    1.0000 </r>
       <r>  -26.3982    1.0000 </r>
       <r>  -26.3919    1.0000 </r>
       <r>  -26.3673    1.0000 </r>
       <r>  -26.3445    1.0000 </r>
       <r>  -26.3425    1.0000 </r>
       <r>  -26.2391    1.0000 </r>
       <r>  -26.1997    1.0000 </r>
       <r>  -26.1981    1.0000 </r>
       <r>  -25.9690    1.0000 </r>
       <r>  -25.8922    1.0000 </r>
       <r>  -11.9746    1.0000 </r>
       <r>  -11.7739    1.0000 </r>
       <r>  -11.7005    1.0000 </r>
       <r>  -11.5984    1.0000 </r>
       <r>  -11.4306    1.0000 </r>
[...]
       <r>   -32.3753     0.0000    64.0000 </r>
       <r>   -32.1802     0.0000    64.0000 </r>
       <r>   -31.9851     0.0000    64.0000 </r>
       <r>   -31.7900     0.0000    64.0000 </r>
       <r>   -31.5949     0.0000    64.0000 </r>
       <r>   -31.3998     0.0000    64.0000 </r>
       <r>   -31.2047     0.0000    64.0000 </r>
       <r>   -31.0096     0.0020    64.0004 </r>
       <r>   -30.8145    21.1594    68.1287 </r>
       <r>   -30.6194    68.5586    81.5047 </r>
       <r>   -30.4243   120.8634   105.0855 </r>
       <r>   -30.2292   218.3748   147.6912 </r>
       <r>   -30.0341   208.5296   188.3760 </r>
       <r>   -29.8390   181.2911   223.7465 </r>
       <r>   -29.6439   135.0339   250.0920 </r>
       <r>   -29.4488    30.2776   255.9993 </r>
       <r>   -29.2537     0.0036   256.0000 </r>
       <r>   -29.0586     0.0000   256.0000 </r>
       <r>   -28.8635     0.0000   256.0000 </r>
       <r>   -28.6684     0.0000   256.0000 </r>
       <r>   -28.4733     0.0000   256.0000 </r>
       <r>   -28.2782     0.0000   256.0000 </r>
       <r>   -28.0831     0.0000   256.0000 </r>
       <r>   -27.8880     0.0000   256.0000 </r>
       <r>   -27.6929     0.0000   256.0000 </r>
       <r>   -27.4978     0.0000   256.0000 </r>
       <r>   -27.3027     0.0649   256.0127 </r>
       <r>   -27.1076    10.5356   258.0682 </r>
       <r>   -26.9124    25.1690   262.9787 </r>
       <r>   -26.7173    56.2972   273.9625 </r>
       <r>   -26.5222    75.0564   288.6063 </r>
       <r>   -26.3271   101.2338   308.3573 </r>
       <r>   -26.1320    38.5570   315.8799 </r>
       <r>   -25.9369    10.0527   317.8412 </r>
       <r>   -25.7418    11.0647   320.0000 </r>
       <r>   -25.5467     0.0001   320.0000 </r>
       <r>   -25.3516     0.0000   320.0000 </r>
       <r>   -25.1565     0.0000   320.0000 </r>
       <r>   -24.9614     0.0000   320.0000 </r>
       <r>   -24.7663     0.0000   320.0000 </r>
       <r>   -24.5712     0.0000   320.0000 </r>
       <r>   -24.3761     0.0000   320.0000 </r>
       <r>   -24.1810     0.0000   320.0000 </r>
       <r>   -23.9859     0.0000   320.0000 </r>
       <r>   -23.7908     0.0000   320.0000 </r>
       <r>   -23.5957     0.0000   320.0000 </r>
       <r>   -23.4006     0.0000   320.0000 </r>
       <r>   -23.2055     0.0000   320.0000 </r>
       <r>   -23.0104     0.0000   320.0000 </r>
       <r>   -22.8153     0.0000   320.0000 </r>
       <r>   -22.6202     0.0000   320.0000 </r>
       <r>   -22.4251     0.0000   320.0000 </r>
       <r>   -22.2300     0.0000   320.0000 </r>
       <r>   -22.0349     0.0000   320.0000 </r>
       <r>   -21.8398     0.0000   320.0000 </r>
       <r>   -21.6447     0.0000   320.0000 </r>
       <r>   -21.4496     0.0000   320.0000 </r>
       <r>   -21.2545     0.0000   320.0000 </r>
       <r>   -21.0593     0.0000   320.0000 </r>
       <r>   -20.8642     0.0000   320.0000 </r>
       <r>   -20.6691     0.0000   320.0000 </r>
       <r>   -20.4740     0.0000   320.0000 </r>
       <r>   -20.2789     0.0000   320.0000 </r>
       <r>   -20.0838     0.0000   320.0000 </r>
       <r>   -19.8887     0.0000   320.0000 </r>
       <r>   -19.6936     0.0000   320.0000 </r>
       <r>   -19.4985     0.0000   320.0000 </r>
       <r>   -19.3034     0.0000   320.0000 </r>
       <r>   -19.1083     0.0000   320.0000 </r>
       <r>   -18.9132     0.0000   320.0000 </r>
       <r>   -18.7181     0.0000   320.0000 </r>
       <r>   -18.5230     0.0000   320.0000 </r>
       <r>   -18.3279     0.0000   320.0000 </r>
       <r>   -18.1328     0.0000   320.0000 </r>
       <r>   -17.9377     0.0000   320.0000 </r>
       <r>   -17.7426     0.0000   320.0000 </r>
       <r>   -17.5475     0.0000   320.0000 </r>
       <r>   -17.3524     0.0000   320.0000 </r>
       <r>   -17.1573     0.0000   320.0000 </r>
       <r>   -16.9622     0.0000   320.0000 </r>
       <r>   -16.7671     0.0000   320.0000 </r>
       <r>   -16.5720     0.0000   320.0000 </r>
       <r>   -16.3769     0.0000   320.0000 </r>
       <r>   -16.1818     0.0000   320.0000 </r>
       <r>   -15.9867     0.0000   320.0000 </r>
       <r>   -15.7916     0.0000   320.0000 </r>
       <r>   -15.5965     0.0000   320.0000 </r>
       <r>   -15.4014     0.0000   320.0000 </r>
       <r>   -15.2062     0.0000   320.0000 </r>
       <r>   -15.0111     0.0000   320.0000 </r>
       <r>   -14.8160     0.0000   320.0000 </r>
       <r>   -14.6209     0.0000   320.0000 </r>
       <r>   -14.4258     0.0000   320.0000 </r>
       <r>   -14.2307     0.0000   320.0000 </r>
       <r>   -14.0356     0.0000   320.0000 </r>
       <r>   -13.8405     0.0000   320.0000 </r>
       <r>   -13.6454     0.0000   320.0000 </r>
       <r>   -13.4503     0.0000   320.0000 </r>
       <r>   -13.2552     0.0000   320.0000 </r>
       <r>   -13.0601     0.0000   320.0000 </r>
       <r>   -12.8650     0.0000   320.0000 </r>
       <r>   -12.6699     0.0000   320.0000 </r>
       <r>   -12.4748     0.0000   320.0000 </r>
       <r>   -12.2797     0.0000   320.0000 </r>
       <r>   -12.0846     0.0328   320.0064 </r>
       <r>   -11.8895     9.9851   321.9545 </r>
       <r>   -11.6944    14.1570   324.7166 </r>
       <r>   -11.4993    16.3040   327.8976 </r>
       <r>   -11.3042    22.6026   332.3074 </r>
       <r>   -11.1091    25.2315   337.2302 </r>
       <r>   -10.9140    30.8980   343.2585 </r>
       <r>   -10.7189    34.6312   350.0151 </r>
       <r>   -10.5238    10.1733   352.0000 </r>
       <r>   -10.3287     0.0001   352.0000 </r>
       <r>   -10.1336     0.0000   352.0000 </r>
       <r>    -9.9385     0.0000   352.0000 </r>
       <r>    -9.7434     0.0001   352.0000 </r>
       <r>    -9.5483    14.9978   354.9261 </r>
       <r>    -9.3531    30.2222   360.8226 </r>
       <r>    -9.1580    41.4994   368.9192 </r>
       <r>    -8.9629    85.5048   385.6015 </r>
       <r>    -8.7678   107.0061   406.4788 </r>
       <r>    -8.5727   130.1725   431.8758 </r>
       <r>    -8.3776   163.3997   463.7557 </r>
       <r>    -8.1825   177.8063   498.4463 </r>
       <r>    -7.9874   135.5240   524.8875 </r>
       <r>    -7.7923    55.5208   535.7197 </r>
       <r>    -7.5972    31.4701   541.8597 </r>
       <r>    -7.4021     9.7911   543.7700 </r>
       <r>    -7.2070     1.1791   544.0000 </r>
       <r>    -7.0119     0.0000   544.0000 </r>
       <r>    -6.8168     0.0000   544.0000 </r>
       <r>    -6.6217     0.0000   544.0000 </r>
       <r>    -6.4266     0.0000   544.0000 </r>
       <r>    -6.2315     0.0000   544.0000 </r>
       <r>    -6.0364     0.0000   544.0000 </r>
       <r>    -5.8413     0.0000   544.0000 </r>
       <r>    -5.6462     0.0000   544.0000 </r>
       <r>    -5.4511     0.0000   544.0000 </r>
       <r>    -5.2560     0.0038   544.0007 </r>
       <r>    -5.0609    12.3043   546.4014 </r>
       <r>    -4.8658    31.9187   552.6288 </r>
       <r>    -4.6707    38.3589   560.1128 </r>
       <r>    -4.4756    27.3170   565.4424 </r>
       <r>    -4.2805    39.2719   573.1045 </r>
       <r>    -4.0854    39.2542   580.7631 </r>
       <r>    -3.8903    69.7650   594.3745 </r>
       <r>    -3.6952    64.2571   606.9113 </r>
       <r>    -3.5000    52.0045   617.0575 </r>
       <r>    -3.3049    30.2083   622.9513 </r>
       <r>    -3.1098    34.6408   629.7098 </r>
       <r>    -2.9147    30.2356   635.6088 </r>
       <r>    -2.7196    20.5021   639.6089 </r>
       <r>    -2.5245     2.0047   640.0000 </r>
       <r>    -2.3294     0.0000   640.0000 </r>
       <r>    -2.1343     0.0000   640.0000 </r>
       <r>    -1.9392     0.0013   640.0003 </r>
       <r>    -1.7441     4.4257   640.8637 </r>
       <r>    -1.5490    10.1222   642.8386 </r>
       <r>    -1.3539    23.8704   647.4958 </r>
       <r>    -1.1588    11.3572   649.7116 </r>
       <r>    -0.9637    20.6865   653.7476 </r>
       <r>    -0.7686    26.1801   658.8554 </r>
       <r>    -0.5735    23.7128   663.4819 </r>
       <r>    -0.3784    27.6498   668.8765 </r>
       <r>    -0.1833    34.6673   675.6402 </r>
       <r>     0.0118    33.5099   682.1781 </r>
       <r>     0.2069    26.2498   687.2995 </r>
       <r>     0.4020    33.2842   693.7933 </r>
       <r>     0.5971    59.2328   705.3499 </r>
       <r>     0.7922    95.2844   723.9402 </r>
       <r>     0.9873    98.9220   743.2402 </r>
       <r>     1.1824   102.2792   763.1952 </r>
       <r>     1.3775    24.6262   767.9999 </r>
       <r>     1.5726     0.0007   768.0000 </r>
       <r>     1.7677     0.0000   768.0000 </r>
       <r>     1.9628     0.0000   768.0000 </r>
       <r>     2.1579     0.0000   768.0000 </r>
       <r>     2.3531     0.0000   768.0000 </r>
       <r>     2.5482     0.0000   768.0000 </r>
       <r>     2.7433     0.0000   768.0000 </r>
       <r>     2.9384     0.0000   768.0000 </r>
       <r>     3.1335     0.0000   768.0000 </r>
       <r>     3.3286     0.0000   768.0000 </r>
       <r>     3.5237     0.0000   768.0000 </r>
       <r>     3.7188     0.0000   768.0000 </r>
       <r>     3.9139     0.0000   768.0000 </r>
      </set>
     </set>
    </array>
   </total>
  </dos>
 </calculation>
 <structure name="finalpos" >
  <crystal>
   <varray name="basis" >
    <v>      13.12862340       0.00000000       0.00000000 </v>
    <v>      -6.56431170      11.36972138       0.00000000 </v>
    <v>       0.00000000       0.00000000      26.82809424 </v>
   </varray>
   <i name="volume">   4004.59716953 </i>
   <varray name="rec_basis" >
    <v>       0.07616945       0.04397645       0.00000000 </v>
    <v>       0.00000000       0.08795290       0.00000000 </v>
    <v>       0.00000000       0.00000000       0.03727436 </v>
   </varray>
  </crystal>
  <varray name="positions" >
   <v>       0.07613043       0.16463682       0.45194673 </v>
   <v>       0.08338095       0.42052953       0.45534127 </v>
   <v>       0.08189711       0.66855085       0.45507071 </v>
   <v>       0.08698877       0.92572587       0.45070454 </v>
   <v>       0.33508524       0.16142564       0.45212530 </v>
   <v>       0.32447697       0.40938946       0.45239809 </v>
   <v>       0.33293028       0.65996503       0.45314518 </v>
   <v>       0.33140730       0.91235045       0.45623632 </v>
   <v>       0.57917016       0.16560795       0.45325357 </v>
   <v>       0.58240655       0.41009890       0.44986164 </v>
   <v>       0.57943907       0.66388110       0.45046477 </v>
   <v>       0.56913166       0.91105675       0.45432907 </v>
   <v>       0.82679245       0.17188490       0.44314728 </v>
   <v>       0.83158237       0.42158559       0.45038534 </v>
   <v>       0.83972705       0.66365257       0.45765385 </v>
   <v>       0.82894601       0.91472299       0.44635912 </v>
   <v>       0.16666663       0.08199410       0.54650601 </v>
   <v>       0.17066528       0.33000581       0.54863190 </v>
   <v>       0.16863810       0.57982787       0.54869955 </v>
   <v>       0.16564611       0.83527546       0.54638854 </v>
   <v>       0.41427299       0.08197091       0.54960522 </v>
   <v>       0.43269764       0.34218996       0.54659193 </v>
   <v>       0.41772809       0.57933250       0.54727488 </v>
   <v>       0.41702195       0.81987126       0.55448334 </v>
   <v>       0.67147105       0.08539639       0.54714730 </v>
   <v>       0.66727679       0.32449824       0.55030212 </v>
   <v>       0.67114163       0.58702995       0.54901588 </v>
   <v>       0.66394845       0.83915612       0.54446122 </v>
   <v>       0.90780016       0.07953107       0.54600913 </v>
   <v>       0.91952023       0.33612504       0.54808981 </v>
   <v>       0.91047311       0.57984095       0.54895751 </v>
   <v>       0.91349256       0.84045947       0.54630581 </v>
   <v>       0.06850554       0.16637470       0.58735302 </v>
   <v>       0.09228146       0.42922932       0.59135680 </v>
   <v>       0.08202980       0.66984222       0.58839028 </v>
   <v>       0.08276391       0.92005285       0.58904959 </v>
   <v>       0.33224719       0.16855818       0.59168067 </v>
   <v>       0.32585126       0.41425089       0.59281266 </v>
   <v>       0.33331230       0.66162692       0.59342519 </v>
   <v>       0.32802312       0.90908775       0.58932563 </v>
   <v>       0.57945045       0.16404235       0.59330157 </v>
   <v>       0.60388016       0.42536824       0.59729160 </v>
   <v>       0.59334485       0.66918655       0.58740893 </v>
   <v>       0.58116599       0.92893972       0.59556446 </v>
   <v>       0.83791903       0.16057534       0.59164095 </v>
   <v>       0.84401278       0.41238644       0.59171211 </v>
   <v>       0.83906499       0.66531799       0.59168731 </v>
   <v>       0.84001705       0.92795228       0.58474806 </v>
   <v>       0.16888407       0.08867280       0.40607026 </v>
   <v>       0.17763143       0.34340563       0.40983410 </v>
   <v>       0.16343744       0.57479165       0.41325951 </v>
   <v>       0.17966247       0.83473097       0.40794457 </v>
   <v>       0.40832990       0.07626791       0.41640205 </v>
   <v>       0.42368534       0.35134257       0.41331903 </v>
   <v>       0.41536388       0.59531522       0.40625858 </v>
   <v>       0.41269592       0.82538637       0.40985116 </v>
   <v>       0.67542839       0.09151350       0.40574797 </v>
   <v>       0.65383336       0.33151205       0.40690838 </v>
   <v>       0.69012422       0.56700433       0.40801149 </v>
   <v>       0.65951571       0.82963002       0.40585252 </v>
   <v>       0.90577958       0.07680065       0.41145910 </v>
   <v>       0.91522558       0.33615340       0.40644058 </v>
   <v>       0.92321944       0.59469553       0.40353888 </v>
   <v>       0.92829385       0.83806455       0.41001253 </v>
   <v>       0.00288293       0.01181481       0.49932667 </v>
   <v>       0.00517563       0.25450470       0.49591577 </v>
   <v>       0.00401914       0.50709074       0.50026272 </v>
   <v>       0.99689056       0.75599053       0.50073560 </v>
   <v>       0.24688100       0.99708797       0.49999619 </v>
   <v>       0.24772496       0.25523997       0.50119776 </v>
   <v>       0.25552898       0.49861506       0.50331273 </v>
   <v>       0.25384642       0.75183630       0.50646275 </v>
   <v>       0.49667125       0.00826975       0.50208922 </v>
   <v>       0.49655884       0.25534562       0.50059487 </v>
   <v>       0.51598462       0.50982016       0.50223732 </v>
   <v>       0.49666685       0.74669759       0.50097536 </v>
   <v>       0.73670509       0.98660770       0.49738221 </v>
   <v>       0.75923279       0.25558430       0.49544861 </v>
   <v>       0.75063555       0.49288616       0.49816391 </v>
   <v>       0.75175988       0.75794383       0.49625658 </v>
  </varray>
  <varray name="velocities" >
   <v>       0.00000000       0.00000000       0.00000000 </v>
   <v>       0.00000000       0.00000000       0.00000000 </v>
   <v>       0.00000000       0.00000000       0.00000000 </v>
   <v>       0.00000000       0.00000000       0.00000000 </v>
   <v>       0.00000000       0.00000000       0.00000000 </v>
   <v>       0.00000000       0.00000000       0.00000000 </v>
   <v>       0.00000000       0.00000000       0.00000000 </v>
   <v>       0.00000000       0.00000000       0.00000000 </v>
   <v>       0.00000000       0.00000000       0.00000000 </v>
   <v>       0.00000000       0.00000000       0.00000000 </v>
   <v>       0.00000000       0.00000000       0.00000000 </v>
   <v>       0.00000000       0.00000000       0.00000000 </v>
   <v>       0.00000000       0.00000000       0.00000000 </v>
   <v>       0.00000000       0.00000000       0.00000000 </v>
   <v>       0.00000000       0.00000000       0.00000000 </v>
   <v>       0.00000000       0.00000000       0.00000000 </v>
   <v>       0.00000000       0.00000000       0.00000000 </v>
   <v>       0.00000000       0.00000000       0.00000000 </v>
   <v>       0.00000000       0.00000000       0.00000000 </v>
   <v>       0.00000000       0.00000000       0.00000000 </v>
   <v>       0.00000000       0.00000000       0.00000000 </v>
   <v>       0.00000000       0.00000000       0.00000000 </v>
   <v>       0.00000000       0.00000000       0.00000000 </v>
   <v>       0.00000000       0.00000000       0.00000000 </v>
   <v>       0.00000000       0.00000000       0.00000000 </v>
   <v>       0.00000000       0.00000000       0.00000000 </v>
   <v>       0.00000000       0.00000000       0.00000000 </v>
   <v>       0.00000000       0.00000000       0.00000000 </v>
   <v>       0.00000000       0.00000000       0.00000000 </v>
   <v>       0.00000000       0.00000000       0.00000000 </v>
   <v>       0.00000000       0.00000000       0.00000000 </v>
   <v>       0.00000000       0.00000000       0.00000000 </v>
   <v>       0.00000000       0.00000000       0.00000000 </v>
   <v>       0.00000000       0.00000000       0.00000000 </v>
   <v>       0.00000000       0.00000000       0.00000000 </v>
   <v>       0.00000000       0.00000000       0.00000000 </v>
   <v>       0.00000000       0.00000000       0.00000000 </v>
   <v>       0.00000000       0.00000000       0.00000000 </v>
   <v>       0.00000000       0.00000000       0.00000000 </v>
   <v>       0.00000000       0.00000000       0.00000000 </v>
   <v>       0.00000000       0.00000000       0.00000000 </v>
   <v>       0.00000000       0.00000000       0.00000000 </v>
   <v>       0.00000000       0.00000000       0.00000000 </v>
   <v>       0.00000000       0.00000000       0.00000000 </v>
   <v>       0.00000000       0.00000000       0.00000000 </v>
   <v>       0.00000000       0.00000000       0.00000000 </v>
   <v>       0.00000000       0.00000000       0.00000000 </v>
   <v>       0.00000000       0.00000000       0.00000000 </v>
   <v>       0.00000000       0.00000000       0.00000000 </v>
   <v>       0.00000000       0.00000000       0.00000000 </v>
   <v>       0.00000000       0.00000000       0.00000000 </v>
   <v>       0.00000000       0.00000000       0.00000000 </v>
   <v>       0.00000000       0.00000000       0.00000000 </v>
   <v>       0.00000000       0.00000000       0.00000000 </v>
   <v>       0.00000000       0.00000000       0.00000000 </v>
   <v>       0.00000000       0.00000000       0.00000000 </v>
   <v>       0.00000000       0.00000000       0.00000000 </v>
   <v>       0.00000000       0.00000000       0.00000000 </v>
   <v>       0.00000000       0.00000000       0.00000000 </v>
   <v>       0.00000000       0.00000000       0.00000000 </v>
   <v>       0.00000000       0.00000000       0.00000000 </v>
   <v>       0.00000000       0.00000000       0.00000000 </v>
   <v>       0.00000000       0.00000000       0.00000000 </v>
   <v>       0.00000000       0.00000000       0.00000000 </v>
   <v>       0.00000000       0.00000000       0.00000000 </v>
   <v>       0.00000000       0.00000000       0.00000000 </v>
   <v>       0.00000000       0.00000000       0.00000000 </v>
   <v>       0.00000000       0.00000000       0.00000000 </v>
   <v>       0.00000000       0.00000000       0.00000000 </v>
   <v>       0.00000000       0.00000000       0.00000000 </v>
   <v>       0.00000000       0.00000000       0.00000000 </v>
   <v>       0.00000000       0.00000000       0.00000000 </v>
   <v>       0.00000000       0.00000000       0.00000000 </v>
   <v>       0.00000000       0.00000000       0.00000000 </v>
   <v>       0.00000000       0.00000000       0.00000000 </v>
   <v>       0.00000000       0.00000000       0.00000000 </v>
   <v>       0.00000000       0.00000000       0.00000000 </v>
   <v>       0.00000000       0.00000000       0.00000000 </v>
   <v>       0.00000000       0.00000000       0.00000000 </v>
   <v>       0.00000000       0.00000000       0.00000000 </v>
  </varray>
 </structure>
</modeling>
