 running on   48 total cores
 distrk:  each k-point on   48 cores,    1 groups
 distr:  one band on   12 cores,    4 groups
 using from now: INCAR     
 vasp.5.4.4.18Apr17-6-g9f103f2a35 (build Mar 16 2023 09:39:13) complex          
  
 POSCAR found type information on POSCAR  Ca Si O 
 POSCAR found :  3 types and     135 ions
 scaLAPACK is switched off
 LDA part: xc-table for Pade appr. of Perdew
 generate k-points for:    2    2    2
 POSCAR, INCAR and KPOINTS ok, starting setup
 FFT: planning ...
 WAVECAR not read
 entering main loop
       N       E                     dE             d eps       ncg     rms          rms(c)
DAV:   1     0.928237832001E+04    0.92824E+04   -0.46263E+05  8320   0.174E+03
DAV:   2    -0.263969543585E+01   -0.92850E+04   -0.90110E+04 10280   0.453E+02
DAV:   3    -0.103028982803E+04   -0.10277E+04   -0.10216E+04 10280   0.153E+02
DAV:   4    -0.107790832560E+04   -0.47618E+02   -0.47452E+02 11160   0.317E+01
DAV:   5    -0.108452027592E+04   -0.66120E+01   -0.66088E+01 15024   0.706E+00    0.862E+01
DAV:   6    -0.918240795349E+03    0.16628E+03   -0.81024E+02 10440   0.428E+01    0.366E+01
DAV:   7    -0.919147685002E+03   -0.90689E+00   -0.78989E+01 11016   0.138E+01    0.189E+01
DAV:   8    -0.917051865283E+03    0.20958E+01   -0.12767E+01 10352   0.609E+00    0.752E+00
DAV:   9    -0.916588008802E+03    0.46386E+00   -0.29742E+00 11544   0.322E+00    0.225E+00
DAV:  10    -0.916719241751E+03   -0.13123E+00   -0.10754E+00 11848   0.168E+00    0.133E+00
DAV:  11    -0.916748319180E+03   -0.29077E-01   -0.15999E-01 11256   0.713E-01    0.761E-01
DAV:  12    -0.916785880571E+03   -0.37561E-01   -0.78105E-02  9784   0.512E-01    0.354E-01
DAV:  13    -0.916796941627E+03   -0.11061E-01   -0.21920E-02 11864   0.308E-01    0.231E-01
DAV:  14    -0.916799649984E+03   -0.27084E-02   -0.97827E-03 10904   0.165E-01    0.125E-01
DAV:  15    -0.916801013068E+03   -0.13631E-02   -0.20711E-03  9832   0.845E-02    0.728E-02
DAV:  16    -0.916801525104E+03   -0.51204E-03   -0.11071E-03  9208   0.772E-02    0.499E-02
DAV:  17    -0.916801585844E+03   -0.60740E-04   -0.80825E-04 11408   0.477E-02    0.325E-02
DAV:  18    -0.916801596163E+03   -0.10320E-04   -0.12358E-04 10744   0.168E-02    0.189E-02
DAV:  19    -0.916801595802E+03    0.36095E-06   -0.38545E-05  9056   0.121E-02    0.819E-03
DAV:  20    -0.916801598516E+03   -0.27134E-05   -0.21630E-05 11104   0.847E-03    0.475E-03
DAV:  21    -0.916801599328E+03   -0.81175E-06   -0.43024E-06  8584   0.374E-03
   1 F= -.91680160E+03 E0= -.91680160E+03  d E =-.193593E-13
