 vasp.5.4.4.18Apr17-6-g9f103f2a35 (build Oct 31 2019 15:01:46) complex          
  
 executed on             LinuxIFC date 2024.04.18  23:14:55
 running on   52 total cores
 distrk:  each k-point on   52 cores,    1 groups
 distr:  one band on NCORES_PER_BAND=  13 cores,    4 groups


--------------------------------------------------------------------------------------------------------


 INCAR:
 POTCAR:    PAW_PBE Sc_sv 07Sep2000               
 POTCAR:    PAW_PBE F 08Apr2002                   
 POTCAR:    PAW_PBE C 08Apr2002                   
 POTCAR:    PAW_PBE Sc_sv 07Sep2000               
   VRHFIN =Sc: 3p4s3d                                                           
   LEXCH  = PE                                                                  
   EATOM  =  1273.2868 eV,   93.5839 Ry                                         
                                                                                
   TITEL  = PAW_PBE Sc_sv 07Sep2000                                             
   LULTRA =        F    use ultrasoft PP ?                                      
   IUNSCR =        1    unscreen: 0-lin 1-nonlin 2-no                           
   RPACOR =    2.200    partial core radius                                     
   POMASS =   44.956; ZVAL   =   11.000    mass and valenz                      
   RCORE  =    2.500    outmost cutoff radius                                   
   RWIGS  =    2.700; RWIGS  =    1.429    wigner-seitz radius (au A)           
   ENMAX  =  222.660; ENMIN  =  166.995 eV                                      
   RCLOC  =    1.805    cutoff for local pot                                    
   LCOR   =        T    correct aug charges                                     
   LPAW   =        T    paw PP                                                  
   EAUG   =  443.063                                                            
   RMAX   =    2.551    core radius for proj-oper                               
   RAUG   =    1.300    factor for augmentation sphere                          
   RDEP   =    2.650    radius for radial grids                                 
   RDEPT  =    2.038    core radius for aug-charge                              
                                                                                
   Atomic configuration                                                         
    8 entries                                                                   
     n  l   j            E        occ.                                          
     1  0  0.50     -4394.2533   2.0000                                         
     2  0  0.50      -471.0040   2.0000                                         
     2  1  1.50      -384.9788   6.0000                                         
     3  0  0.50       -52.1410   2.0000                                         
     4  0  0.50        -3.5584   1.0000                                         
     3  1  1.50       -30.8841   6.0000                                         
     3  2  2.50        -1.3655   2.0000                                         
     4  3  2.50        -1.3606   0.0000                                         
   Description                                                                  
     l       E           TYP  RCUT    TYP  RCUT                                 
     0    -52.1409870     23  1.800                                             
     0     -3.5583698     23  2.500                                             
     1    -30.8840697     23  2.300                                             
     1      4.0817478     23  2.300                                             
     2     -1.3655397     23  2.500                                             
     2      0.3564476     23  2.500                                             
  local pseudopotential read in
  partial core-charges read in
  partial kinetic energy density read in
  atomic valenz-charges read in
  non local Contribution for L=           0  read in
    real space projection operators read in
  non local Contribution for L=           0  read in
    real space projection operators read in
  non local Contribution for L=           1  read in
    real space projection operators read in
  non local Contribution for L=           1  read in
    real space projection operators read in
  non local Contribution for L=           2  read in
    real space projection operators read in
  non local Contribution for L=           2  read in
    real space projection operators read in
    PAW grid and wavefunctions read in
 
   number of l-projection  operators is LMAX  =           6
   number of lm-projection operators is LMMAX =          18
 
 POTCAR:    PAW_PBE F 08Apr2002                   
   VRHFIN =F: s2p5                                                              
   LEXCH  = PE                                                                  
   EATOM  =   659.6475 eV,   48.4827 Ry                                         
                                                                                
   TITEL  = PAW_PBE F 08Apr2002                                                 
   LULTRA =        F    use ultrasoft PP ?                                      
   IUNSCR =        1    unscreen: 0-lin 1-nonlin 2-no                           
   RPACOR =    1.200    partial core radius                                     
   POMASS =   18.998; ZVAL   =    7.000    mass and valenz                      
   RCORE  =    1.520    outmost cutoff radius                                   
   RWIGS  =    1.500; RWIGS  =    0.794    wigner-seitz radius (au A)           
   ENMAX  =  400.000; ENMIN  =  300.000 eV                                      
   ICORE  =        2    local potential                                         
   LCOR   =        T    correct aug charges                                     
   LPAW   =        T    paw PP                                                  
   EAUG   =  613.614                                                            
   RMAX   =    1.555    core radius for proj-oper                               
   RAUG   =    1.300    factor for augmentation sphere                          
   RDEP   =    1.539    radius for radial grids                                 
   RDEPT  =    1.299    core radius for aug-charge                              
                                                                                
   Atomic configuration                                                         
    4 entries                                                                   
     n  l   j            E        occ.                                          
     1  0  0.50      -663.3661   2.0000                                         
     2  0  0.50       -29.8995   2.0000                                         
     2  1  0.50       -11.1114   5.0000                                         
     3  2  1.50       -10.8847   0.0000                                         
   Description                                                                  
     l       E           TYP  RCUT    TYP  RCUT                                 
     0    -29.8995018     23  1.200                                             
     0     -9.5240782     23  1.200                                             
     1    -11.1113914     23  1.520                                             
     1      1.3605826     23  1.520                                             
     2    -10.8846608      7  1.500                                             
  local pseudopotential read in
  partial core-charges read in
  partial kinetic energy density read in
  atomic valenz-charges read in
  non local Contribution for L=           0  read in
    real space projection operators read in
  non local Contribution for L=           0  read in
    real space projection operators read in
  non local Contribution for L=           1  read in
    real space projection operators read in
  non local Contribution for L=           1  read in
    real space projection operators read in
    PAW grid and wavefunctions read in
 
   number of l-projection  operators is LMAX  =           4
   number of lm-projection operators is LMMAX =           8
 
 POTCAR:    PAW_PBE C 08Apr2002                   
   VRHFIN =C: s2p2                                                              
   LEXCH  = PE                                                                  
   EATOM  =   147.1560 eV,   10.8157 Ry                                         
                                                                                
   TITEL  = PAW_PBE C 08Apr2002                                                 
   LULTRA =        F    use ultrasoft PP ?                                      
   IUNSCR =        1    unscreen: 0-lin 1-nonlin 2-no                           
   RPACOR =    1.200    partial core radius                                     
   POMASS =   12.011; ZVAL   =    4.000    mass and valenz                      
   RCORE  =    1.500    outmost cutoff radius                                   
   RWIGS  =    1.630; RWIGS  =    0.863    wigner-seitz radius (au A)           
   ENMAX  =  400.000; ENMIN  =  300.000 eV                                      
   ICORE  =        2    local potential                                         
   LCOR   =        T    correct aug charges                                     
   LPAW   =        T    paw PP                                                  
   EAUG   =  644.873                                                            
   DEXC   =    0.000                                                            
   RMAX   =    1.529    core radius for proj-oper                               
   RAUG   =    1.300    factor for augmentation sphere                          
   RDEP   =    1.501    radius for radial grids                                 
   RDEPT  =    1.300    core radius for aug-charge                              
                                                                                
   Atomic configuration                                                         
    4 entries                                                                   
     n  l   j            E        occ.                                          
     1  0  0.50      -273.3789   2.0000                                         
     2  0  0.50       -13.7508   2.0000                                         
     2  1  0.50        -5.2854   2.0000                                         
     3  2  1.50        -5.4423   0.0000                                         
   Description                                                                  
     l       E           TYP  RCUT    TYP  RCUT                                 
     0    -13.7508458     23  1.200                                             
     0     -8.2022199     23  1.200                                             
     1     -5.2854383     23  1.500                                             
     1     34.0145650     23  1.500                                             
     2     -5.4423304      7  1.500                                             
  local pseudopotential read in
  partial core-charges read in
  partial kinetic energy density read in
  atomic valenz-charges read in
  non local Contribution for L=           0  read in
    real space projection operators read in
  non local Contribution for L=           0  read in
    real space projection operators read in
  non local Contribution for L=           1  read in
    real space projection operators read in
  non local Contribution for L=           1  read in
    real space projection operators read in
    PAW grid and wavefunctions read in
 
   number of l-projection  operators is LMAX  =           4
   number of lm-projection operators is LMMAX =           8
 
 Optimization of the real space projectors (new method)

 maximal supplied QI-value         = 15.12
 optimisation between [QCUT,QGAM] = [ 12.55, 25.10] = [ 44.09,176.36] Ry 
 Optimized for a Real-space Cutoff    1.56 Angstroem

   l    n(q)    QCUT    max X(q) W(low)/X(q) W(high)/X(q)  e(spline) 
   0     12    12.548     2.962    0.12E-05    0.11E-06    0.46E-07
   0     12    12.548    26.414    0.30E-04    0.15E-05    0.76E-07
   1     11    12.548     3.969    0.45E-05    0.12E-05    0.60E-07
   1     11    12.548     5.137    0.15E-04    0.18E-04    0.36E-06
   2     11    12.548   143.970    0.20E-03    0.19E-03    0.76E-06
   2     11    12.548   121.201    0.20E-03    0.19E-03    0.76E-06
 Optimization of the real space projectors (new method)

 maximal supplied QI-value         = 24.76
 optimisation between [QCUT,QGAM] = [ 12.38, 25.00] = [ 42.90,175.06] Ry 
 Optimized for a Real-space Cutoff    1.16 Angstroem

   l    n(q)    QCUT    max X(q) W(low)/X(q) W(high)/X(q)  e(spline) 
   0      9    12.378    14.049    0.11E-03    0.38E-05    0.23E-06
   0      9    12.378     8.945    0.15E-03    0.56E-05    0.30E-06
   1      8    12.378     7.086    0.18E-03    0.14E-03    0.29E-06
   1      8    12.378     6.747    0.16E-03    0.13E-03    0.26E-06
 Optimization of the real space projectors (new method)

 maximal supplied QI-value         = 25.13
 optimisation between [QCUT,QGAM] = [ 12.32, 24.88] = [ 42.47,173.37] Ry 
 Optimized for a Real-space Cutoff    1.16 Angstroem

   l    n(q)    QCUT    max X(q) W(low)/X(q) W(high)/X(q)  e(spline) 
   0      9    12.315   115.676    0.19E-03    0.80E-05    0.34E-06
   0      9    12.315    87.132    0.19E-03    0.82E-05    0.34E-06
   1      8    12.315     4.429    0.18E-03    0.13E-03    0.22E-06
   1      8    12.315     2.733    0.14E-03    0.10E-03    0.18E-06
  PAW_PBE Sc_sv 07Sep2000               :
 energy of atom  1       EATOM=-1273.2868
 kinetic energy error for atom=    0.0014 (will be added to EATOM!!)
  PAW_PBE F 08Apr2002                   :
 energy of atom  2       EATOM= -659.6475
 kinetic energy error for atom=    0.0256 (will be added to EATOM!!)
  PAW_PBE C 08Apr2002                   :
 energy of atom  3       EATOM= -147.1560
 kinetic energy error for atom=    0.0057 (will be added to EATOM!!)
 
 
 POSCAR: Sc  F  C                                
  positions in cartesian coordinates
  No initial velocities read in
 exchange correlation table for  LEXCH =        8
   RHO(1)=    0.500       N(1)  =     2000
   RHO(2)=  100.500       N(2)  =     4000
 


--------------------------------------------------------------------------------------------------------


 ion  position               nearest neighbor table
   1  0.086  0.171  0.454-  70 2.13  50 2.18  61 2.21  66 2.22  49 2.24  65 2.41  29 3.12  18 3.15
                            17 3.17   6 3.21   2 3.23   5 3.25  13 3.26   4 3.29  16 3.33
   2  0.079  0.414  0.455-  62 2.12  67 2.14  66 2.19  51 2.24  50 2.26  71 2.37  30 3.07  18 3.08
                            13 3.19  19 3.20   1 3.23  14 3.26   7 3.26   6 3.27   3 3.31
   3  0.085  0.669  0.456-  52 2.16  63 2.17  68 2.20  72 2.21  51 2.26  67 2.37  20 3.03  31 3.12
                             7 3.13  19 3.18  15 3.24   8 3.26   4 3.29   2 3.31  14 3.37
   4  0.084  0.920  0.452-  52 2.20  65 2.26  64 2.26  49 2.28  68 2.29  69 2.30  32 3.13  20 3.14
                            16 3.21  15 3.22  17 3.22   5 3.23   3 3.29   1 3.29   8 3.31
   5  0.331  0.165  0.452-  74 2.22  53 2.22  54 2.25  69 2.31  49 2.31  70 2.34  22 3.06  21 3.15
                            17 3.22   4 3.23   1 3.25   8 3.30   6 3.32   9 3.33  10 3.41
   6  0.329  0.418  0.454-  55 2.14  54 2.15  71 2.16  50 2.21  70 2.25  75 2.29  18 3.09  23 3.12
                            22 3.17   1 3.21   2 3.27  11 3.32   7 3.32   5 3.32
   7  0.322  0.667  0.452-  51 2.06  72 2.18  56 2.25  55 2.28  71 2.30  76 2.47   3 3.13  19 3.16
                             8 3.19  23 3.22  24 3.22   2 3.26   6 3.32  12 3.36  11 3.41
   8  0.335  0.916  0.457-  53 2.22  52 2.22  69 2.26  73 2.28  72 2.30  56 2.36  21 3.02  20 3.06
                            24 3.08  12 3.18   7 3.19   3 3.26   5 3.30   4 3.31   9 3.33
   9  0.587  0.172  0.455-  53 2.20  58 2.21  78 2.23  74 2.28  73 2.28  57 2.31  26 3.15  21 3.16
                            25 3.16  14 3.17  12 3.23  10 3.25  13 3.29   5 3.33   8 3.33
  10  0.593  0.422  0.454-  59 2.13  79 2.21  75 2.24  58 2.25  74 2.42  54 2.47  27 3.11  26 3.14
                            14 3.18  22 3.22   9 3.25  15 3.28  11 3.31   5 3.41
  11  0.583  0.669  0.453-  55 2.14  60 2.21  80 2.25  76 2.28  75 2.31  59 2.44  28 2.98  23 3.11
                            27 3.27  16 3.27  10 3.31   6 3.32  12 3.34  15 3.36   7 3.41
  12  0.579  0.922  0.449-  57 2.15  56 2.20  73 2.20  76 2.33  60 2.35  77 2.40  28 3.12   8 3.18
                            24 3.19   9 3.23  25 3.24  13 3.33  11 3.34   7 3.36
  13  0.837  0.170  0.452-  57 2.24  77 2.25  62 2.26  61 2.26  66 2.27  78 2.28  29 3.11  25 3.15
                            30 3.16   2 3.19  14 3.22   1 3.26   9 3.29  12 3.33  16 3.37
  14  0.829  0.411  0.457-  58 2.18  79 2.20  78 2.22  67 2.33  62 2.35  63 2.36  30 3.07  31 3.11
                            26 3.16   9 3.17  10 3.18  13 3.22   2 3.26   3 3.37  15 3.38
  15  0.841  0.674  0.449-  64 2.10  63 2.19  80 2.20  59 2.22  68 2.24  79 2.56  32 3.13  16 3.18
                             4 3.22  31 3.23   3 3.24  10 3.28  11 3.36  14 3.38  27 3.42
  16  0.837  0.914  0.451-  60 2.14  64 2.20  80 2.25  61 2.25  77 2.27  65 2.29  29 3.06  32 3.08
                            28 3.11  15 3.18   4 3.21  11 3.27   1 3.33  13 3.37
  17  0.164  0.086  0.549-  37 2.11  33 2.17  36 2.20  65 2.27  70 2.32  69 2.34  22 3.15   1 3.17
                             5 3.22   4 3.22  29 3.27  21 3.29  32 3.31  18 3.32  20 3.33
  18  0.169  0.341  0.547-  34 2.13  71 2.22  38 2.25  70 2.26  66 2.28  33 2.37   2 3.08   6 3.09
                             1 3.15  19 3.18  30 3.24  23 3.25  22 3.29  17 3.32
  19  0.169  0.584  0.550-  34 2.14  35 2.20  72 2.23  67 2.28  39 2.32  71 2.36   7 3.16  18 3.18
                             3 3.18   2 3.20  23 3.24  30 3.29  20 3.31  24 3.32  31 3.35
  20  0.164  0.832  0.545-  36 2.18  35 2.19  69 2.22  68 2.26  72 2.27  40 2.38   3 3.03   8 3.06
                             4 3.14  21 3.23  32 3.27  31 3.28  19 3.31  17 3.33  24 3.36
  21  0.411  0.078  0.546-  40 2.13  37 2.16  69 2.18  74 2.20  73 2.32  41 2.36   8 3.02   5 3.15
                             9 3.16  22 3.20  20 3.23  24 3.24  17 3.29  26 3.30  25 3.41
  22  0.409  0.321  0.545-  37 2.15  74 2.18  70 2.29  42 2.30  75 2.35  38 2.40   5 3.06  17 3.15
                             6 3.17  21 3.20  10 3.22  26 3.23  18 3.29  27 3.32  23 3.42
  23  0.417  0.586  0.546-  71 2.19  39 2.20  43 2.23  38 2.26  76 2.28  75 2.33  11 3.11   6 3.12
                             7 3.22  28 3.23  19 3.24  18 3.25  24 3.26  27 3.28  22 3.42
  24  0.422  0.837  0.548-  44 2.17  76 2.23  73 2.27  40 2.33  72 2.34  39 2.36   8 3.08  28 3.18
                            12 3.19   7 3.22  21 3.24  23 3.26  25 3.30  19 3.32  20 3.36
  25  0.675  0.087  0.547-  45 2.16  44 2.18  78 2.19  73 2.29  77 2.34  41 2.39  13 3.15   9 3.16
                            29 3.18  30 3.22  12 3.24  28 3.25  24 3.30  26 3.31  21 3.41
  26  0.660  0.332  0.550-  41 2.08  79 2.20  46 2.24  42 2.26  74 2.36  78 2.39  10 3.14   9 3.15
                            14 3.16  27 3.18  22 3.23  21 3.30  25 3.31  31 3.32  30 3.38
  27  0.661  0.574  0.551-  42 2.19  47 2.22  43 2.28  75 2.29  79 2.33  80 2.45  10 3.11  26 3.18
                            11 3.27  31 3.27  23 3.28  22 3.32  32 3.37  28 3.41  15 3.42
  28  0.662  0.833  0.540-  76 2.06  44 2.19  48 2.23  77 2.26  43 2.27  80 2.37  11 2.98  16 3.11
                            12 3.12  24 3.18  29 3.21  23 3.23  25 3.25  32 3.33  27 3.41
  29  0.910  0.074  0.543-  77 2.13  48 2.21  65 2.21  45 2.29  66 2.34  33 2.35  16 3.06  13 3.11
                             1 3.12  25 3.18  32 3.20  28 3.21  17 3.27  30 3.37
  30  0.918  0.334  0.547-  46 2.14  67 2.16  78 2.28  34 2.28  66 2.29  45 2.30  14 3.07   2 3.07
                            13 3.16  25 3.22  18 3.24  19 3.29  31 3.30  29 3.37  26 3.38
  31  0.914  0.583  0.547-  47 2.18  79 2.22  35 2.27  68 2.31  46 2.33  67 2.39  14 3.11   3 3.12
                            15 3.23  32 3.27  27 3.27  20 3.28  30 3.30  26 3.32  19 3.35
  32  0.915  0.832  0.544-  65 2.14  48 2.20  47 2.21  80 2.24  68 2.26  36 2.33  16 3.08  15 3.13
                             4 3.13  29 3.20  31 3.27  20 3.27  17 3.31  28 3.33  27 3.37
  33  0.080  0.162  0.593-  17 2.17  29 2.35  18 2.37
  34  0.091  0.421  0.590-  18 2.13  19 2.14  30 2.28
  35  0.087  0.671  0.590-  20 2.19  19 2.20  31 2.27
  36  0.089  0.918  0.589-  20 2.18  17 2.20  32 2.33
  37  0.328  0.160  0.587-  17 2.11  22 2.15  21 2.16
  38  0.333  0.422  0.594-  18 2.25  23 2.26  22 2.40
  39  0.342  0.664  0.596-  23 2.20  19 2.32  24 2.36
  40  0.340  0.929  0.593-  21 2.13  24 2.33  20 2.38
  41  0.585  0.178  0.593-  26 2.08  21 2.36  25 2.39
  42  0.572  0.413  0.595-  27 2.19  26 2.26  22 2.30
  43  0.582  0.673  0.590-  23 2.23  28 2.27  27 2.28
  44  0.589  0.919  0.586-  24 2.17  25 2.18  28 2.19
  45  0.833  0.162  0.592-  25 2.16  29 2.29  30 2.30
  46  0.832  0.405  0.590-  30 2.14  26 2.24  31 2.33
  47  0.835  0.669  0.588-  31 2.18  32 2.21  27 2.22
  48  0.825  0.908  0.586-  32 2.20  29 2.21  28 2.23
  49  0.161  0.086  0.405-   1 2.24   4 2.28   5 2.31
  50  0.165  0.333  0.410-   1 2.18   6 2.21   2 2.26
  51  0.168  0.583  0.412-   7 2.06   2 2.24   3 2.26
  52  0.168  0.831  0.414-   3 2.16   4 2.20   8 2.22
  53  0.420  0.082  0.414-   9 2.20   8 2.22   5 2.22
  54  0.403  0.334  0.409-   6 2.15   5 2.25  10 2.47
  55  0.418  0.582  0.415-  11 2.14   6 2.14   7 2.28
  56  0.417  0.830  0.405-  12 2.20   7 2.25   8 2.36
  57  0.670  0.084  0.408-  12 2.15  13 2.24   9 2.31
  58  0.673  0.335  0.410-  14 2.18   9 2.21  10 2.25
  59  0.672  0.574  0.408-  10 2.13  15 2.22  11 2.44
  60  0.676  0.834  0.410-  16 2.14  11 2.21  12 2.35
  61  0.923  0.085  0.409-   1 2.21  16 2.25  13 2.26
  62  0.928  0.340  0.408-   2 2.12  13 2.26  14 2.35
  63  0.926  0.588  0.411-   3 2.17  15 2.19  14 2.36
  64  0.916  0.830  0.407-  15 2.10  16 2.20   4 2.26
  65  0.999  0.993  0.502-  32 2.14  29 2.21   4 2.26  17 2.27  16 2.29   1 2.41
  66  0.003  0.252  0.499-   2 2.19   1 2.22  13 2.27  18 2.28  30 2.29  29 2.34
  67  0.004  0.492  0.502-   2 2.14  30 2.16  19 2.28  14 2.33   3 2.37  31 2.39
  68  0.999  0.750  0.498-   3 2.20  15 2.24  20 2.26  32 2.26   4 2.29  31 2.31
  69  0.250  0.999  0.502-  21 2.18  20 2.22   8 2.26   4 2.30   5 2.31  17 2.34
  70  0.241  0.250  0.498-   1 2.13   6 2.25  18 2.26  22 2.29  17 2.32   5 2.34
  71  0.257  0.501  0.500-   6 2.16  23 2.19  18 2.22   7 2.30  19 2.36   2 2.37
  72  0.247  0.743  0.502-   7 2.18   3 2.21  19 2.23  20 2.27   8 2.30  24 2.34
  73  0.507  0.002  0.500-  12 2.20  24 2.27   9 2.28   8 2.28  25 2.29  21 2.32
  74  0.488  0.240  0.501-  22 2.18  21 2.20   5 2.22   9 2.28  26 2.36  10 2.42
  75  0.501  0.497  0.499-  10 2.24  27 2.29   6 2.29  11 2.31  23 2.33  22 2.35
  76  0.505  0.758  0.501-  28 2.06  24 2.23  23 2.28  11 2.28  12 2.33   7 2.47
  77  0.758  0.003  0.497-  29 2.13  13 2.25  28 2.26  16 2.27  25 2.34  12 2.40
  78  0.749  0.246  0.501-  25 2.19  14 2.22   9 2.23  13 2.28  30 2.28  26 2.39
  79  0.748  0.490  0.504-  26 2.20  14 2.20  10 2.21  31 2.22  27 2.33  15 2.56
  80  0.754  0.745  0.495-  15 2.20  32 2.24  11 2.25  16 2.25  28 2.37  27 2.45
 
  LATTYP: Found a hexagonal cell.
 ALAT       =    13.1286233990
 C/A-ratio  =     2.0434811347
  
  Lattice vectors:
  
 A1 = (  13.1286234000,   0.0000000000,   0.0000000000)
 A2 = (  -6.5643117000,  11.3697213800,   0.0000000000)
 A3 = (   0.0000000000,   0.0000000000,  26.8280942400)


Analysis of symmetry for initial positions (statically):
=====================================================================
 Subroutine PRICEL returns:
 Original cell was already a primitive cell.
 

 Routine SETGRP: Setting up the symmetry group for a 
 hexagonal supercell.


 Subroutine GETGRP returns: Found  1 space group operations
 (whereof  1 operations were pure point group operations)
 out of a pool of 24 trial point group operations.


The static configuration has the point symmetry C_1 .


Analysis of symmetry for dynamics (positions and initial velocities):
=====================================================================
 Subroutine PRICEL returns:
 Original cell was already a primitive cell.
 

 Routine SETGRP: Setting up the symmetry group for a 
 hexagonal supercell.


 Subroutine GETGRP returns: Found  1 space group operations
 (whereof  1 operations were pure point group operations)
 out of a pool of 24 trial point group operations.


The dynamic configuration has the point symmetry C_1 .


 Subroutine INISYM returns: Found  1 space group operations
 (whereof  1 operations are pure point group operations),
 and found     1 'primitive' translations

 
 

Automatic generation of k-mesh.
 generate k-points for:    3    3    1
Space group operators:
 irot       det(A)        alpha          n_x          n_y          n_z        tau_x        tau_y        tau_z
    1     1.000000     0.000000     1.000000     0.000000     0.000000     0.000000     0.000000     0.000000
 
 Subroutine IBZKPT returns following result:
 ===========================================
 
 Found      5 irreducible k-points:
 
 Following reciprocal coordinates:
            Coordinates               Weight
  0.000000  0.000000  0.000000      1.000000
  0.333333 -0.000000  0.000000      2.000000
  0.000000  0.333333  0.000000      2.000000
  0.333333  0.333333  0.000000      2.000000
 -0.333333  0.333333  0.000000      2.000000
 
 Following cartesian coordinates:
            Coordinates               Weight
  0.000000  0.000000  0.000000      1.000000
  0.025390  0.014659  0.000000      2.000000
  0.000000  0.029318  0.000000      2.000000
  0.025390  0.043976  0.000000      2.000000
 -0.025390  0.014659  0.000000      2.000000
 


--------------------------------------------------------------------------------------------------------




 Dimension of arrays:
   k-points           NKPTS =      5   k-points in BZ     NKDIM =      5   number of bands    NBANDS=    384
   number of dos      NEDOS =    301   number of ions     NIONS =     80
   non local maximal  LDIM  =      6   non local SUM 2l+1 LMDIM =     18
   total plane-waves  NPLWV = ******
   max r-space proj   IRMAX =  10060   max aug-charges    IRDMAX= 222480
   dimension x,y,z NGX =   108 NGY =  108 NGZ =  216
   dimension x,y,z NGXF=   216 NGYF=  216 NGZF=  432
   support grid    NGXF=   432 NGYF=  432 NGZF=  864
   ions per type =              32  32  16
   NGX,Y,Z   is equivalent  to a cutoff of  13.68, 13.68, 13.38 a.u.
   NGXF,Y,Z  is equivalent  to a cutoff of  27.35, 27.35, 26.77 a.u.

 SYSTEM =  unknown system                          
 POSCAR =  Sc  F  C                                

 Startparameter for this run:
   NWRITE =      2    write-flag & timer
   PREC   = anorma    normal or accurate (medium, high low for compatibility)
   ISTART =      0    job   : 0-new  1-cont  2-samecut
   ICHARG =      2    charge: 1-file 2-atom 10-const
   ISPIN  =      1    spin polarized calculation?
   LNONCOLLINEAR =      F non collinear calculations
   LSORBIT =      F    spin-orbit coupling
   INIWAV =      1    electr: 0-lowe 1-rand  2-diag
   LASPH  =      F    aspherical Exc in radial PAW
   METAGGA=      F    non-selfconsistent MetaGGA calc.

 Electronic Relaxation 1
   ENCUT  =  600.0 eV  44.10 Ry    6.64 a.u.  26.22 26.22 53.58*2*pi/ulx,y,z
   ENINI  =  600.0     initial cutoff
   ENAUG  =  644.9 eV  augmentation charge cutoff
   NELM   =     60;   NELMIN=  2; NELMDL= -5     # of ELM steps 
   EDIFF  = 0.1E-05   stopping-criterion for ELM
   LREAL  =      T    real-space projection
   NLSPLINE    = F    spline interpolate recip. space projectors
   LCOMPAT=      F    compatible to vasp.4.4
   GGA_COMPAT  = T    GGA compatible to vasp.4.4-vasp.4.6
   LMAXPAW     = -100 max onsite density
   LMAXMIX     =    2 max onsite mixed and CHGCAR
   VOSKOWN=      0    Vosko Wilk Nusair interpolation
   ROPT   =   -0.00025  -0.00025  -0.00025
 Ionic relaxation
   EDIFFG = -.1E-01   stopping-criterion for IOM
   NSW    =      1    number of steps for IOM
   NBLOCK =      1;   KBLOCK =      1    inner block; outer block 
   IBRION =     -1    ionic relax: 0-MD 1-quasi-New 2-CG
   NFREE  =      0    steps in history (QN), initial steepest desc. (CG)
   ISIF   =      2    stress and relaxation
   IWAVPR =     10    prediction:  0-non 1-charg 2-wave 3-comb
   ISYM   =      2    0-nonsym 1-usesym 2-fastsym
   LCORR  =      T    Harris-Foulkes like correction to forces

   POTIM  = 1.0000    time-step for ionic-motion
   TEIN   =    0.0    initial temperature
   TEBEG  =    0.0;   TEEND  =   0.0 temperature during run
   SMASS  =  -3.00    Nose mass-parameter (am)
   estimated Nose-frequenzy (Omega)   =  0.10E-29 period in steps =****** mass=  -0.394E-26a.u.
   SCALEE = 1.0000    scale energy and forces
   NPACO  =    256;   APACO  = 16.0  distance and # of slots for P.C.
   PSTRESS=    0.0 pullay stress

  Mass of Ions in am
   POMASS =  44.96 19.00 12.01
  Ionic Valenz
   ZVAL   =  11.00  7.00  4.00
  Atomic Wigner-Seitz radii
   RWIGS  =  -1.00 -1.00 -1.00
  virtual crystal weights 
   VCA    =   1.00  1.00  1.00
   NELECT =     640.0000    total number of electrons
   NUPDOWN=      -1.0000    fix difference up-down

 DOS related values:
   EMIN   =  10.00;   EMAX   =-10.00  energy-range for DOS
   EFERMI =   0.00
   ISMEAR =     0;   SIGMA  =   0.05  broadening in eV -4-tet -1-fermi 0-gaus

 Electronic relaxation 2 (details)
   IALGO  =     38    algorithm
   LDIAG  =      T    sub-space diagonalisation (order eigenvalues)
   LSUBROT=      F    optimize rotation matrix (better conditioning)
   TURBO    =      0    0=normal 1=particle mesh
   IRESTART =      0    0=no restart 2=restart with 2 vectors
   NREBOOT  =      0    no. of reboots
   NMIN     =      0    reboot dimension
   EREF     =   0.00    reference energy to select bands
   IMIX   =      4    mixing-type and parameters
     AMIX     =   0.40;   BMIX     =  1.00
     AMIX_MAG =   1.60;   BMIX_MAG =  1.00
     AMIN     =   0.10
     WC   =   100.;   INIMIX=   1;  MIXPRE=   1;  MAXMIX= -45

 Intra band minimization:
   WEIMIN = 0.0000     energy-eigenvalue tresh-hold
   EBREAK =  0.65E-09  absolut break condition
   DEPER  =   0.30     relativ break condition  

   TIME   =   0.40     timestep for ELM

  volume/ion in A,a.u.               =      50.06       337.80
  Fermi-wavevector in a.u.,A,eV,Ry     =   0.888414  1.678858 10.738790  0.789279
  Thomas-Fermi vector in A             =   2.009840
 
 Write flags
   LWAVE        =      F    write WAVECAR
   LDOWNSAMPLE  =      F    k-point downsampling of WAVECAR
   LCHARG       =      F    write CHGCAR
   LVTOT        =      F    write LOCPOT, total local potential
   LVHAR        =      F    write LOCPOT, Hartree potential only
   LELF         =      F    write electronic localiz. function (ELF)
   LORBIT       =      0    0 simple, 1 ext, 2 COOP (PROOUT), +10 PAW based schemes


 Dipole corrections
   LMONO  =      F    monopole corrections only (constant potential shift)
   LDIPOL =      F    correct potential (dipole corrections)
   IDIPOL =      0    1-x, 2-y, 3-z, 4-all directions 
   EPSILON=  1.0000000 bulk dielectric constant

 Exchange correlation treatment:
   GGA     =    --    GGA type
   LEXCH   =     8    internal setting for exchange type
   VOSKOWN=      0    Vosko Wilk Nusair interpolation
   LHFCALC =     F    Hartree Fock is set to
   LHFONE  =     F    Hartree Fock one center treatment
   AEXX    =    0.0000 exact exchange contribution

 Linear response parameters
   LEPSILON=     F    determine dielectric tensor
   LRPA    =     F    only Hartree local field effects (RPA)
   LNABLA  =     F    use nabla operator in PAW spheres
   LVEL    =     F    velocity operator in full k-point grid
   LINTERFAST=   F  fast interpolation
   KINTER  =     0    interpolate to denser k-point grid
   CSHIFT  =0.1000    complex shift for real part using Kramers Kronig
   OMEGAMAX=  -1.0    maximum frequency
   DEG_THRESHOLD= 0.2000000E-02 threshold for treating states as degnerate
   RTIME   =   -0.100 relaxation time in fs
  (WPLASMAI=    0.000 imaginary part of plasma frequency in eV, 0.658/RTIME)
   DFIELD  = 0.0000000 0.0000000 0.0000000 field for delta impulse in time
 
 Orbital magnetization related:
   ORBITALMAG=     F  switch on orbital magnetization
   LCHIMAG   =     F  perturbation theory with respect to B field
   DQ        =  0.001000  dq finite difference perturbation B field
   LLRAUG    =     F  two centre corrections for induced B field



--------------------------------------------------------------------------------------------------------


 Static calculation
 charge density and potential will be updated during run
 non-spin polarized calculation
 Variant of blocked Davidson
 Davidson routine will perform the subspace rotation
 perform sub-space diagonalisation
    after iterative eigenvector-optimisation
 modified Broyden-mixing scheme, WC =      100.0
 initial mixing is a Kerker type mixing with AMIX =  0.4000 and BMIX =      1.0000
 Hartree-type preconditioning will be used
 using additional bands           64
 real space projection scheme for non local part
 use partial core corrections
 calculate Harris-corrections to forces 
   (improved forces if not selfconsistent)
 use gradient corrections 
 use of overlap-Matrix (Vanderbilt PP)
 Gauss-broadening in eV      SIGMA  =   0.05


--------------------------------------------------------------------------------------------------------


  energy-cutoff  :      600.00
  volume of cell :     4004.60
      direct lattice vectors                 reciprocal lattice vectors
    13.128623400  0.000000000  0.000000000     0.076169448  0.043976451  0.000000000
    -6.564311700 11.369721380  0.000000000     0.000000000  0.087952903  0.000000000
     0.000000000  0.000000000 26.828094240     0.000000000  0.000000000  0.037274358

  length of vectors
    13.128623400 13.128623399 26.828094240     0.087952903  0.087952903  0.037274358


 
 k-points in units of 2pi/SCALE and weight: read from INCAR                         
   0.00000000  0.00000000  0.00000000       0.111
   0.02538982  0.01465882  0.00000000       0.222
   0.00000000  0.02931763  0.00000000       0.222
   0.02538982  0.04397645  0.00000000       0.222
  -0.02538982  0.01465882  0.00000000       0.222
 
 k-points in reciprocal lattice and weights: read from INCAR                         
   0.00000000  0.00000000  0.00000000       0.111
   0.33333333 -0.00000000  0.00000000       0.222
   0.00000000  0.33333333  0.00000000       0.222
   0.33333333  0.33333333  0.00000000       0.222
  -0.33333333  0.33333333  0.00000000       0.222
 
 position of ions in fractional coordinates (direct lattice) 
   0.08602777  0.17147812  0.45362715
   0.07873430  0.41410463  0.45499864
   0.08484284  0.66923299  0.45598824
   0.08449822  0.91978145  0.45204668
   0.33051001  0.16510087  0.45229873
   0.32919516  0.41768538  0.45380019
   0.32227202  0.66720404  0.45192492
   0.33475873  0.91597340  0.45685248
   0.58692260  0.17152187  0.45488507
   0.59300340  0.42211720  0.45437761
   0.58292371  0.66939512  0.45332546
   0.57898723  0.92156950  0.44908468
   0.83702842  0.17030780  0.45197144
   0.82946661  0.41145493  0.45698257
   0.84096193  0.67370200  0.44857676
   0.83707498  0.91376853  0.45108719
   0.16442297  0.08588705  0.54931406
   0.16850215  0.34064350  0.54673604
   0.16946621  0.58355911  0.55024985
   0.16421478  0.83248320  0.54512624
   0.41061696  0.07812686  0.54584888
   0.40869402  0.32117570  0.54517821
   0.41741388  0.58617775  0.54563044
   0.42200676  0.83695905  0.54762162
   0.67480489  0.08709298  0.54736411
   0.65980858  0.33167483  0.55045446
   0.66059559  0.57422580  0.55071636
   0.66179393  0.83343907  0.53998219
   0.90997353  0.07354244  0.54291759
   0.91837523  0.33403138  0.54703093
   0.91411439  0.58299221  0.54704949
   0.91462954  0.83218519  0.54383055
   0.07981523  0.16225300  0.59254105
   0.09142476  0.42067464  0.59024539
   0.08704214  0.67060165  0.58954268
   0.08874085  0.91773412  0.58934726
   0.32789137  0.15960031  0.58662892
   0.33287582  0.42246576  0.59367206
   0.34243114  0.66385173  0.59573112
   0.34006089  0.92860088  0.59337330
   0.58497160  0.17820478  0.59286276
   0.57229945  0.41311426  0.59514165
   0.58241521  0.67307490  0.59035143
   0.58922431  0.91911693  0.58635454
   0.83303309  0.16202454  0.59180886
   0.83237856  0.40541570  0.59036221
   0.83487798  0.66869786  0.58822085
   0.82477033  0.90800151  0.58612123
   0.16075800  0.08618557  0.40505392
   0.16468404  0.33276754  0.40973690
   0.16768800  0.58280435  0.41211734
   0.16753858  0.83115194  0.41385655
   0.42001022  0.08217992  0.41367164
   0.40342102  0.33431000  0.40938727
   0.41841841  0.58238670  0.41499470
   0.41696210  0.83043605  0.40479560
   0.66965800  0.08384239  0.40820056
   0.67281409  0.33471131  0.40989331
   0.67235664  0.57355239  0.40755973
   0.67595437  0.83385993  0.40987283
   0.92275443  0.08512288  0.40879911
   0.92839663  0.33955070  0.40805974
   0.92638129  0.58815229  0.41124741
   0.91642432  0.82996491  0.40714965
   0.99863777  0.99294546  0.50224801
   0.00289445  0.25163907  0.49907496
   0.00434416  0.49172840  0.50214824
   0.99946258  0.75015546  0.49800975
   0.24950627  0.99875122  0.50173861
   0.24084791  0.25033744  0.49847277
   0.25749950  0.50147799  0.50006566
   0.24674936  0.74327998  0.50170915
   0.50749328  0.00212599  0.50001732
   0.48815037  0.23998819  0.50091317
   0.50050143  0.49651336  0.49876486
   0.50527561  0.75751500  0.50127704
   0.75775342  0.00285636  0.49656618
   0.74947068  0.24615393  0.50112220
   0.74836598  0.48989678  0.50352475
   0.75380375  0.74549141  0.49542764
 
 position of ions in cartesian coordinates  (Angst):
   0.00379037  1.94965843 12.16995182
  -1.68463893  4.70825424 12.20674650
  -3.27918426  7.60899264 12.23329541
  -4.92838688 10.45765885 12.12755082
   3.25536785  1.87715094 12.13431289
   1.58006223  4.74896636 12.17459419
  -0.14874737  7.58592405 12.12428433
  -1.61781358 10.41436231 12.25648128
   6.57956274  1.95015588 12.20369950
   5.01440947  4.79935492 12.19008526
   3.25886757  7.61083602 12.16185820
   1.55183587 10.47798843 12.04808614
   9.87107735  1.93635224 12.12553239
   8.18883633  4.67812786 12.25997153
   6.61828255  7.65980398 12.03445967
   4.99138076 10.38929362 12.10180954
   1.59485786  0.97651180 14.73704925
  -0.02388884  3.87302174 14.66788609
  -1.60580588  6.63490444 14.76215491
  -3.30876527  9.46510205 14.62469820
   4.87798637  0.88828067 14.64408530
   3.25729244  3.65167818 14.62609237
   1.63221624  6.66467767 14.63822489
   0.04630775  9.51599117 14.69164455
   8.28755384  0.99022291 14.68473603
   6.48516135  3.77105043 14.76764401
   4.90331365  6.52878731 14.77467053
   3.21748938  9.47597003 14.48669312
  11.46394422  0.83615709 14.56544421
   9.86431642  3.79784374 14.67579744
   8.17412091  6.62845904 14.67629540
   6.54510376  9.46171376 14.58993721
  -0.01721520  1.84477143 15.89674719
  -1.56115815  4.78295341 15.83515890
  -3.25929479  7.62455387 15.81630650
  -4.85924765 10.43438119 15.81106394
   3.25709615  1.81461104 15.73813590
   1.59700440  4.80331798 15.92709001
   0.13791982  7.54780918 15.98233065
  -1.63109426 10.55793326 15.91907474
   6.51008013  2.02613870 15.90537794
   4.80169321  4.69699401 15.96651621
   3.22803657  7.65267404 15.83800378
   1.70233407 10.45010340 15.73077491
   9.87299819  1.84217388 15.87710399
   8.26670964  4.60946358 15.83829310
   6.57125736  7.60290832 15.78084430
   4.86769411 10.32372417 15.72451562
   1.54478235  0.97990590 10.86682472
  -0.02231514  3.78347420 10.99246010
  -1.62419681  6.62632312 11.05632271
  -3.25638949  9.44996598 11.10298242
   4.97470137  0.93436278 11.09802161
   3.10184763  3.80101156 10.98308020
   1.67028986  6.62157456 11.13351681
   0.02289734  9.44182650 10.85989439
   8.24132010  0.95326465 10.95124299
   6.63597341  3.80557433 10.99665643
   5.06214047  6.52113085 10.93405086
   3.40063382  9.48075511 10.99610693
  11.55572234  0.96782338 10.96730109
   9.95965310  3.86059680 10.94746513
   8.30129609  6.68712765 11.03298439
   6.58324148  9.43646976 10.92304913
   6.59273568 11.28951325 13.47435706
  -1.61383710  2.86106610 13.38923010
  -3.17082565  5.59081490 13.47168026
   8.19731357  8.52905860 13.36065238
  -3.28044046 11.35552307 13.46069077
   1.51870851  2.84626698 13.37307450
   0.08875606  5.70166508 13.41580859
  -1.63964210  8.45088633 13.45990048
   6.64873248  0.02417189 13.41451168
   4.83338506  2.72859886 13.43854583
   3.31162636  5.64521855 13.38091076
   1.66100862  8.61273445 13.44830775
   9.92950926  0.03247602 13.32192436
   8.22368724  2.79870158 13.44415368
   6.60917999  5.56998986 13.50860950
   5.00276755  8.47602957 13.29137941
 


--------------------------------------------------------------------------------------------------------


 k-point  1 :   0.0000 0.0000 0.0000  plane waves:  133769
 k-point  2 :   0.3333-0.0000 0.0000  plane waves:  133588
 k-point  3 :   0.0000 0.3333 0.0000  plane waves:  133588
 k-point  4 :   0.3333 0.3333 0.0000  plane waves:  133608
 k-point  5 :  -0.3333 0.3333 0.0000  plane waves:  133588

 maximum and minimum number of plane-waves per node :     10323    10242

 maximum number of plane-waves:    133769
 maximum index in each direction: 
   IXMAX=   26   IYMAX=   26   IZMAX=   53
   IXMIN=  -26   IYMIN=  -26   IZMIN=  -53


 real space projection operators:
  total allocation   :      55716.27 KBytes
  max/ min on nodes  :       4706.66       4067.62


 parallel 3D FFT for wavefunctions:
    minimum data exchange during FFTs selected (reduces bandwidth)
 parallel 3D FFT for charge:
    minimum data exchange during FFTs selected (reduces bandwidth)


 total amount of memory used by VASP MPI-rank0   234713. kBytes
=======================================================================

   base      :      30000. kBytes
   nonlr-proj:      19445. kBytes
   fftplans  :      66973. kBytes
   grid      :      38377. kBytes
   one-center:        108. kBytes
   wavefun   :      79810. kBytes
 
     INWAV:  cpu time    0.0000: real time    0.0000
 Broyden mixing: mesh for mixing (old mesh)
   NGX = 53   NGY = 53   NGZ =107
  (NGX  =216   NGY  =216   NGZ  =432)
  gives a total of 300563 points

 initial charge density was supplied:
 charge density of overlapping atoms calculated
 number of electron     640.0000000 magnetization 
 keeping initial charge density in first step


--------------------------------------------------------------------------------------------------------


 Maximum index for non-local projection operator         1107
 Maximum index for augmentation-charges         5573 (set IRDMAX)


--------------------------------------------------------------------------------------------------------


 First call to EWALD:  gamma=   0.112
 Maximum number of real-space cells 4x 4x 2
 Maximum number of reciprocal cells 2x 2x 4

    FEWALD:  cpu time    0.0029: real time    0.0029


--------------------------------------- Iteration      1(   1)  ---------------------------------------


    POTLOK:  cpu time    0.4266: real time    0.4352
    SETDIJ:  cpu time    0.4227: real time    0.4228
     EDDAV:  cpu time   46.7185: real time   46.7238
       DOS:  cpu time    0.0014: real time    0.0013
    --------------------------------------------
      LOOP:  cpu time   47.5692: real time   47.5831

 eigenvalue-minimisations  :  4248
 total energy-change (2. order) : 0.1365348E+05  (-0.2789833E+05)
 number of electron     640.0000000 magnetization 
 augmentation part      640.0000000 magnetization 

 Free energy of the ion-electron system (eV)
  ---------------------------------------------------
  alpha Z        PSCENC =       871.83850952
  Ewald energy   TEWEN  =    287946.43056415
  -Hartree energ DENC   =   -342281.14387755
  -exchange      EXHF   =         0.00000000
  -V(xc)+E(xc)   XCENC  =      3043.98917730
  PAW double counting   =     50525.51240023   -50422.77561733
  entropy T*S    EENTRO =        -0.06907255
  eigenvalues    EBANDS =      -237.73977933
  atomic energy  EATOM  =     64207.43592568
  Solvation  Ediel_sol  =         0.00000000
  ---------------------------------------------------
  free energy    TOTEN  =     13653.47823012 eV

  energy without entropy =    13653.54730266  energy(sigma->0) =    13653.51276639


--------------------------------------------------------------------------------------------------------




--------------------------------------- Iteration      1(   2)  ---------------------------------------


     EDDAV:  cpu time   50.2023: real time   50.2202
       DOS:  cpu time    0.0015: real time    0.0015
    --------------------------------------------
      LOOP:  cpu time   50.2038: real time   50.2217

 eigenvalue-minimisations  :  4648
 total energy-change (2. order) :-0.1118326E+05  (-0.1088456E+05)
 number of electron     640.0000000 magnetization 
 augmentation part      640.0000000 magnetization 

 Free energy of the ion-electron system (eV)
  ---------------------------------------------------
  alpha Z        PSCENC =       871.83850952
  Ewald energy   TEWEN  =    287946.43056415
  -Hartree energ DENC   =   -342281.14387755
  -exchange      EXHF   =         0.00000000
  -V(xc)+E(xc)   XCENC  =      3043.98917730
  PAW double counting   =     50525.51240023   -50422.77561733
  entropy T*S    EENTRO =        -0.05375982
  eigenvalues    EBANDS =    -11421.01141331
  atomic energy  EATOM  =     64207.43592568
  Solvation  Ediel_sol  =         0.00000000
  ---------------------------------------------------
  free energy    TOTEN  =      2470.22190886 eV

  energy without entropy =     2470.27566868  energy(sigma->0) =     2470.24878877


--------------------------------------------------------------------------------------------------------




--------------------------------------- Iteration      1(   3)  ---------------------------------------


     EDDAV:  cpu time   68.4148: real time   68.4202
       DOS:  cpu time    0.0006: real time    0.0006
    --------------------------------------------
      LOOP:  cpu time   68.4155: real time   68.4208

 eigenvalue-minimisations  :  6792
 total energy-change (2. order) :-0.2854972E+04  (-0.2738447E+04)
 number of electron     640.0000000 magnetization 
 augmentation part      640.0000000 magnetization 

 Free energy of the ion-electron system (eV)
  ---------------------------------------------------
  alpha Z        PSCENC =       871.83850952
  Ewald energy   TEWEN  =    287946.43056415
  -Hartree energ DENC   =   -342281.14387755
  -exchange      EXHF   =         0.00000000
  -V(xc)+E(xc)   XCENC  =      3043.98917730
  PAW double counting   =     50525.51240023   -50422.77561733
  entropy T*S    EENTRO =        -0.00000000
  eigenvalues    EBANDS =    -14276.03758712
  atomic energy  EATOM  =     64207.43592568
  Solvation  Ediel_sol  =         0.00000000
  ---------------------------------------------------
  free energy    TOTEN  =      -384.75050513 eV

  energy without entropy =     -384.75050513  energy(sigma->0) =     -384.75050513


--------------------------------------------------------------------------------------------------------




--------------------------------------- Iteration      1(   4)  ---------------------------------------


     EDDAV:  cpu time   62.4692: real time   62.4826
       DOS:  cpu time    0.0006: real time    0.0006
    --------------------------------------------
      LOOP:  cpu time   62.4698: real time   62.4832

 eigenvalue-minimisations  :  6064
 total energy-change (2. order) :-0.3558649E+03  (-0.3514223E+03)
 number of electron     640.0000000 magnetization 
 augmentation part      640.0000000 magnetization 

 Free energy of the ion-electron system (eV)
  ---------------------------------------------------
  alpha Z        PSCENC =       871.83850952
  Ewald energy   TEWEN  =    287946.43056415
  -Hartree energ DENC   =   -342281.14387755
  -exchange      EXHF   =         0.00000000
  -V(xc)+E(xc)   XCENC  =      3043.98917730
  PAW double counting   =     50525.51240023   -50422.77561733
  entropy T*S    EENTRO =        -0.00000000
  eigenvalues    EBANDS =    -14631.90249727
  atomic energy  EATOM  =     64207.43592568
  Solvation  Ediel_sol  =         0.00000000
  ---------------------------------------------------
  free energy    TOTEN  =      -740.61541528 eV

  energy without entropy =     -740.61541528  energy(sigma->0) =     -740.61541528


--------------------------------------------------------------------------------------------------------




--------------------------------------- Iteration      1(   5)  ---------------------------------------


     EDDAV:  cpu time   62.7733: real time   62.7880
       DOS:  cpu time    0.0007: real time    0.0007
    CHARGE:  cpu time    3.6252: real time    3.6252
    MIXING:  cpu time    0.0187: real time    0.0189
    --------------------------------------------
      LOOP:  cpu time   66.4178: real time   66.4327

 eigenvalue-minimisations  :  6080
 total energy-change (2. order) :-0.1425997E+02  (-0.1420187E+02)
 number of electron     640.0000008 magnetization 
 augmentation part      134.5220007 magnetization 

 Broyden mixing:
  rms(total) = 0.76916E+01    rms(broyden)= 0.76914E+01
  rms(prec ) = 0.80921E+01
  weight for this iteration     100.00

 Free energy of the ion-electron system (eV)
  ---------------------------------------------------
  alpha Z        PSCENC =       871.83850952
  Ewald energy   TEWEN  =    287946.43056415
  -Hartree energ DENC   =   -342281.14387755
  -exchange      EXHF   =         0.00000000
  -V(xc)+E(xc)   XCENC  =      3043.98917730
  PAW double counting   =     50525.51240023   -50422.77561733
  entropy T*S    EENTRO =        -0.00000000
  eigenvalues    EBANDS =    -14646.16246913
  atomic energy  EATOM  =     64207.43592568
  Solvation  Ediel_sol  =         0.00000000
  ---------------------------------------------------
  free energy    TOTEN  =      -754.87538713 eV

  energy without entropy =     -754.87538713  energy(sigma->0) =     -754.87538713


--------------------------------------------------------------------------------------------------------




--------------------------------------- Iteration      1(   6)  ---------------------------------------


    POTLOK:  cpu time    0.4188: real time    0.4279
    SETDIJ:  cpu time    0.4456: real time    0.4456
     EDDAV:  cpu time   60.2995: real time   60.3020
       DOS:  cpu time    0.0007: real time    0.0007
    CHARGE:  cpu time    3.6651: real time    3.6724
    MIXING:  cpu time    0.0218: real time    0.0218
    --------------------------------------------
      LOOP:  cpu time   64.8515: real time   64.8705

 eigenvalue-minimisations  :  5728
 total energy-change (2. order) : 0.1555555E+03  (-0.8335297E+02)
 number of electron     640.0000008 magnetization 
 augmentation part      140.3260622 magnetization 

 Broyden mixing:
  rms(total) = 0.24938E+01    rms(broyden)= 0.24931E+01
  rms(prec ) = 0.25429E+01
  weight for this iteration     100.00

 eigenvalues of (default mixing * dielectric matrix)
  average eigenvalue GAMMA=   0.9860
  0.9860

 Free energy of the ion-electron system (eV)
  ---------------------------------------------------
  alpha Z        PSCENC =       871.83850952
  Ewald energy   TEWEN  =    287946.43056415
  -Hartree energ DENC   =   -342445.67603091
  -exchange      EXHF   =         0.00000000
  -V(xc)+E(xc)   XCENC  =      3056.30525140
  PAW double counting   =     56468.10222599   -56434.75080142
  entropy T*S    EENTRO =        -0.00000000
  eigenvalues    EBANDS =    -14269.00550211
  atomic energy  EATOM  =     64207.43592568
  Solvation  Ediel_sol  =         0.00000000
  ---------------------------------------------------
  free energy    TOTEN  =      -599.31985769 eV

  energy without entropy =     -599.31985769  energy(sigma->0) =     -599.31985769


--------------------------------------------------------------------------------------------------------




--------------------------------------- Iteration      1(   7)  ---------------------------------------


    POTLOK:  cpu time    0.3967: real time    0.4064
    SETDIJ:  cpu time    0.4185: real time    0.4185
     EDDAV:  cpu time   61.5006: real time   61.5040
       DOS:  cpu time    0.0007: real time    0.0007
    CHARGE:  cpu time    3.6480: real time    3.6480
    MIXING:  cpu time    0.0162: real time    0.0162
    --------------------------------------------
      LOOP:  cpu time   65.9807: real time   65.9938

 eigenvalue-minimisations  :  5936
 total energy-change (2. order) :-0.3132039E+00  (-0.5257292E+01)
 number of electron     640.0000008 magnetization 
 augmentation part      141.0588293 magnetization 

 Broyden mixing:
  rms(total) = 0.16034E+01    rms(broyden)= 0.16034E+01
  rms(prec ) = 0.16320E+01
  weight for this iteration     100.00

 eigenvalues of (default mixing * dielectric matrix)
  average eigenvalue GAMMA=   1.6818
  0.9723  2.3912

 Free energy of the ion-electron system (eV)
  ---------------------------------------------------
  alpha Z        PSCENC =       871.83850952
  Ewald energy   TEWEN  =    287946.43056415
  -Hartree energ DENC   =   -342579.21073860
  -exchange      EXHF   =         0.00000000
  -V(xc)+E(xc)   XCENC  =      3053.05798392
  PAW double counting   =     60252.70250246   -60226.71950148
  entropy T*S    EENTRO =        -0.00000000
  eigenvalues    EBANDS =    -14125.16830730
  atomic energy  EATOM  =     64207.43592568
  Solvation  Ediel_sol  =         0.00000000
  ---------------------------------------------------
  free energy    TOTEN  =      -599.63306164 eV

  energy without entropy =     -599.63306164  energy(sigma->0) =     -599.63306164


--------------------------------------------------------------------------------------------------------




--------------------------------------- Iteration      1(   8)  ---------------------------------------


    POTLOK:  cpu time    0.3983: real time    0.4089
    SETDIJ:  cpu time    0.4207: real time    0.4207
     EDDAV:  cpu time   58.7227: real time   58.7263
       DOS:  cpu time    0.0007: real time    0.0007
    CHARGE:  cpu time    3.6517: real time    3.6516
    MIXING:  cpu time    0.0138: real time    0.0138
    --------------------------------------------
      LOOP:  cpu time   63.2078: real time   63.2219

 eigenvalue-minimisations  :  5584
 total energy-change (2. order) : 0.1435005E+01  (-0.1037953E+01)
 number of electron     640.0000008 magnetization 
 augmentation part      141.0140222 magnetization 

 Broyden mixing:
  rms(total) = 0.45147E+00    rms(broyden)= 0.45137E+00
  rms(prec ) = 0.48595E+00
  weight for this iteration     100.00

 eigenvalues of (default mixing * dielectric matrix)
  average eigenvalue GAMMA=   1.4374
  2.4727  0.9198  0.9198

 Free energy of the ion-electron system (eV)
  ---------------------------------------------------
  alpha Z        PSCENC =       871.83850952
  Ewald energy   TEWEN  =    287946.43056415
  -Hartree energ DENC   =   -342842.10097556
  -exchange      EXHF   =         0.00000000
  -V(xc)+E(xc)   XCENC  =      3049.69072433
  PAW double counting   =     66796.10970022   -66788.41549871
  entropy T*S    EENTRO =        -0.00000000
  eigenvalues    EBANDS =    -13839.18700584
  atomic energy  EATOM  =     64207.43592568
  Solvation  Ediel_sol  =         0.00000000
  ---------------------------------------------------
  free energy    TOTEN  =      -598.19805622 eV

  energy without entropy =     -598.19805622  energy(sigma->0) =     -598.19805622


--------------------------------------------------------------------------------------------------------




--------------------------------------- Iteration      1(   9)  ---------------------------------------


    POTLOK:  cpu time    0.3692: real time    0.3789
    SETDIJ:  cpu time    0.4210: real time    0.4210
     EDDAV:  cpu time   58.4173: real time   58.4192
       DOS:  cpu time    0.0006: real time    0.0006
    CHARGE:  cpu time    3.7168: real time    3.7167
    MIXING:  cpu time    0.0143: real time    0.0143
    --------------------------------------------
      LOOP:  cpu time   62.9392: real time   62.9508

 eigenvalue-minimisations  :  5536
 total energy-change (2. order) : 0.5326772E+00  (-0.3113323E+00)
 number of electron     640.0000008 magnetization 
 augmentation part      141.4733115 magnetization 

 Broyden mixing:
  rms(total) = 0.21350E+00    rms(broyden)= 0.21350E+00
  rms(prec ) = 0.23019E+00
  weight for this iteration     100.00

 eigenvalues of (default mixing * dielectric matrix)
  average eigenvalue GAMMA=   1.2581
  2.1293  1.1301  0.8864  0.8864

 Free energy of the ion-electron system (eV)
  ---------------------------------------------------
  alpha Z        PSCENC =       871.83850952
  Ewald energy   TEWEN  =    287946.43056415
  -Hartree energ DENC   =   -342939.30620110
  -exchange      EXHF   =         0.00000000
  -V(xc)+E(xc)   XCENC  =      3051.64213934
  PAW double counting   =     67052.89560670   -67047.92669287
  entropy T*S    EENTRO =        -0.00000000
  eigenvalues    EBANDS =    -13740.67523044
  atomic energy  EATOM  =     64207.43592568
  Solvation  Ediel_sol  =         0.00000000
  ---------------------------------------------------
  free energy    TOTEN  =      -597.66537902 eV

  energy without entropy =     -597.66537902  energy(sigma->0) =     -597.66537902


--------------------------------------------------------------------------------------------------------




--------------------------------------- Iteration      1(  10)  ---------------------------------------


    POTLOK:  cpu time    0.3787: real time    0.3896
    SETDIJ:  cpu time    0.4221: real time    0.4221
     EDDAV:  cpu time   61.6036: real time   61.6205
       DOS:  cpu time    0.0006: real time    0.0006
    CHARGE:  cpu time    3.6730: real time    3.6746
    MIXING:  cpu time    0.0184: real time    0.0184
    --------------------------------------------
      LOOP:  cpu time   66.0963: real time   66.1257

 eigenvalue-minimisations  :  5896
 total energy-change (2. order) : 0.3258683E-01  (-0.2373307E-01)
 number of electron     640.0000008 magnetization 
 augmentation part      141.3029994 magnetization 

 Broyden mixing:
  rms(total) = 0.11128E+00    rms(broyden)= 0.11127E+00
  rms(prec ) = 0.13469E+00
  weight for this iteration     100.00

 eigenvalues of (default mixing * dielectric matrix)
  average eigenvalue GAMMA=   1.4713
  2.4240  2.4240  0.9133  0.9133  0.6817

 Free energy of the ion-electron system (eV)
  ---------------------------------------------------
  alpha Z        PSCENC =       871.83850952
  Ewald energy   TEWEN  =    287946.43056415
  -Hartree energ DENC   =   -342997.25055272
  -exchange      EXHF   =         0.00000000
  -V(xc)+E(xc)   XCENC  =      3052.84363688
  PAW double counting   =     66462.93624169   -66456.68125201
  entropy T*S    EENTRO =        -0.00000000
  eigenvalues    EBANDS =    -13685.18586538
  atomic energy  EATOM  =     64207.43592568
  Solvation  Ediel_sol  =         0.00000000
  ---------------------------------------------------
  free energy    TOTEN  =      -597.63279219 eV

  energy without entropy =     -597.63279219  energy(sigma->0) =     -597.63279219


--------------------------------------------------------------------------------------------------------




--------------------------------------- Iteration      1(  11)  ---------------------------------------


    POTLOK:  cpu time    0.3775: real time    0.3912
    SETDIJ:  cpu time    0.4198: real time    0.4198
     EDDAV:  cpu time   58.7140: real time   58.7155
       DOS:  cpu time    0.0006: real time    0.0006
    CHARGE:  cpu time    3.6841: real time    3.6841
    MIXING:  cpu time    0.0249: real time    0.0249
    --------------------------------------------
      LOOP:  cpu time   63.2209: real time   63.2362

 eigenvalue-minimisations  :  5568
 total energy-change (2. order) : 0.1178584E+00  (-0.1695781E-01)
 number of electron     640.0000008 magnetization 
 augmentation part      141.1781738 magnetization 

 Broyden mixing:
  rms(total) = 0.78799E-01    rms(broyden)= 0.78796E-01
  rms(prec ) = 0.91760E-01
  weight for this iteration     100.00

 eigenvalues of (default mixing * dielectric matrix)
  average eigenvalue GAMMA=   1.3789
  2.5041  2.1904  1.0039  0.9217  0.9217  0.7314

 Free energy of the ion-electron system (eV)
  ---------------------------------------------------
  alpha Z        PSCENC =       871.83850952
  Ewald energy   TEWEN  =    287946.43056415
  -Hartree energ DENC   =   -343168.25057104
  -exchange      EXHF   =         0.00000000
  -V(xc)+E(xc)   XCENC  =      3054.51262240
  PAW double counting   =     66393.59089723   -66387.35611401
  entropy T*S    EENTRO =        -0.00000000
  eigenvalues    EBANDS =    -13515.71676774
  atomic energy  EATOM  =     64207.43592568
  Solvation  Ediel_sol  =         0.00000000
  ---------------------------------------------------
  free energy    TOTEN  =      -597.51493381 eV

  energy without entropy =     -597.51493381  energy(sigma->0) =     -597.51493381


--------------------------------------------------------------------------------------------------------




--------------------------------------- Iteration      1(  12)  ---------------------------------------


    POTLOK:  cpu time    0.4025: real time    0.4139
    SETDIJ:  cpu time    0.4203: real time    0.4204
     EDDAV:  cpu time   61.7392: real time   61.7388
       DOS:  cpu time    0.0005: real time    0.0005
    CHARGE:  cpu time    3.6908: real time    3.6909
    MIXING:  cpu time    0.0224: real time    0.0224
    --------------------------------------------
      LOOP:  cpu time   66.2758: real time   66.2868

 eigenvalue-minimisations  :  5920
 total energy-change (2. order) : 0.1938373E-01  (-0.4978410E-02)
 number of electron     640.0000008 magnetization 
 augmentation part      141.2720998 magnetization 

 Broyden mixing:
  rms(total) = 0.32320E-01    rms(broyden)= 0.32319E-01
  rms(prec ) = 0.49185E-01
  weight for this iteration     100.00

 eigenvalues of (default mixing * dielectric matrix)
  average eigenvalue GAMMA=   1.4150
  2.5696  2.5696  1.1301  1.1301  0.9097  0.9097  0.6859

 Free energy of the ion-electron system (eV)
  ---------------------------------------------------
  alpha Z        PSCENC =       871.83850952
  Ewald energy   TEWEN  =    287946.43056415
  -Hartree energ DENC   =   -343207.04810858
  -exchange      EXHF   =         0.00000000
  -V(xc)+E(xc)   XCENC  =      3054.43375077
  PAW double counting   =     66561.28551331   -66555.50531459
  entropy T*S    EENTRO =        -0.00000000
  eigenvalues    EBANDS =    -13476.36639033
  atomic energy  EATOM  =     64207.43592568
  Solvation  Ediel_sol  =         0.00000000
  ---------------------------------------------------
  free energy    TOTEN  =      -597.49555008 eV

  energy without entropy =     -597.49555008  energy(sigma->0) =     -597.49555008


--------------------------------------------------------------------------------------------------------




--------------------------------------- Iteration      1(  13)  ---------------------------------------


    POTLOK:  cpu time    0.4032: real time    0.4148
    SETDIJ:  cpu time    0.4200: real time    0.4200
     EDDAV:  cpu time   59.1518: real time   59.1516
       DOS:  cpu time    0.0006: real time    0.0006
    CHARGE:  cpu time    3.6642: real time    3.6642
    MIXING:  cpu time    0.0217: real time    0.0217
    --------------------------------------------
      LOOP:  cpu time   63.6615: real time   63.6729

 eigenvalue-minimisations  :  5608
 total energy-change (2. order) : 0.8591725E-02  (-0.3748958E-02)
 number of electron     640.0000008 magnetization 
 augmentation part      141.2109804 magnetization 

 Broyden mixing:
  rms(total) = 0.33695E-01    rms(broyden)= 0.33693E-01
  rms(prec ) = 0.43646E-01
  weight for this iteration     100.00

 eigenvalues of (default mixing * dielectric matrix)
  average eigenvalue GAMMA=   1.3622
  2.6297  2.6297  1.2287  1.2287  0.8730  0.8730  0.7607  0.6741

 Free energy of the ion-electron system (eV)
  ---------------------------------------------------
  alpha Z        PSCENC =       871.83850952
  Ewald energy   TEWEN  =    287946.43056415
  -Hartree energ DENC   =   -343272.21538537
  -exchange      EXHF   =         0.00000000
  -V(xc)+E(xc)   XCENC  =      3054.69762200
  PAW double counting   =     66475.77479522   -66469.65657935
  entropy T*S    EENTRO =        -0.00000000
  eigenvalues    EBANDS =    -13411.79241020
  atomic energy  EATOM  =     64207.43592568
  Solvation  Ediel_sol  =         0.00000000
  ---------------------------------------------------
  free energy    TOTEN  =      -597.48695835 eV

  energy without entropy =     -597.48695835  energy(sigma->0) =     -597.48695835


--------------------------------------------------------------------------------------------------------




--------------------------------------- Iteration      1(  14)  ---------------------------------------


    POTLOK:  cpu time    0.3697: real time    0.3790
    SETDIJ:  cpu time    0.4208: real time    0.4245
     EDDAV:  cpu time   59.6327: real time   59.6340
       DOS:  cpu time    0.0006: real time    0.0006
    CHARGE:  cpu time    3.6391: real time    3.6394
    MIXING:  cpu time    0.0525: real time    0.0525
    --------------------------------------------
      LOOP:  cpu time   64.1154: real time   64.1300

 eigenvalue-minimisations  :  5672
 total energy-change (2. order) : 0.3128246E-02  (-0.1134909E-02)
 number of electron     640.0000008 magnetization 
 augmentation part      141.2474732 magnetization 

 Broyden mixing:
  rms(total) = 0.15358E-01    rms(broyden)= 0.15357E-01
  rms(prec ) = 0.25287E-01
  weight for this iteration     100.00

 eigenvalues of (default mixing * dielectric matrix)
  average eigenvalue GAMMA=   1.4750
  2.9352  2.9352  1.5680  1.5680  0.9620  0.9620  0.8329  0.8329  0.6791

 Free energy of the ion-electron system (eV)
  ---------------------------------------------------
  alpha Z        PSCENC =       871.83850952
  Ewald energy   TEWEN  =    287946.43056415
  -Hartree energ DENC   =   -343312.21335340
  -exchange      EXHF   =         0.00000000
  -V(xc)+E(xc)   XCENC  =      3054.76624492
  PAW double counting   =     66520.92413564   -66515.00371369
  entropy T*S    EENTRO =        -0.00000000
  eigenvalues    EBANDS =    -13371.66214292
  atomic energy  EATOM  =     64207.43592568
  Solvation  Ediel_sol  =         0.00000000
  ---------------------------------------------------
  free energy    TOTEN  =      -597.48383011 eV

  energy without entropy =     -597.48383011  energy(sigma->0) =     -597.48383011


--------------------------------------------------------------------------------------------------------




--------------------------------------- Iteration      1(  15)  ---------------------------------------


    POTLOK:  cpu time    0.4183: real time    0.4309
    SETDIJ:  cpu time    0.4459: real time    0.4461
     EDDAV:  cpu time   60.2522: real time   60.2529
       DOS:  cpu time    0.0006: real time    0.0006
    CHARGE:  cpu time    3.6673: real time    3.6673
    MIXING:  cpu time    0.0235: real time    0.0235
    --------------------------------------------
      LOOP:  cpu time   64.8078: real time   64.8212

 eigenvalue-minimisations  :  5736
 total energy-change (2. order) :-0.5516646E-02  (-0.1075218E-02)
 number of electron     640.0000008 magnetization 
 augmentation part      141.2409574 magnetization 

 Broyden mixing:
  rms(total) = 0.13711E-01    rms(broyden)= 0.13709E-01
  rms(prec ) = 0.17856E-01
  weight for this iteration     100.00

 eigenvalues of (default mixing * dielectric matrix)
  average eigenvalue GAMMA=   1.5139
  4.1411  2.6499  2.0582  1.0437  1.0437  0.8736  0.8736  0.9518  0.8327  0.6707

 Free energy of the ion-electron system (eV)
  ---------------------------------------------------
  alpha Z        PSCENC =       871.83850952
  Ewald energy   TEWEN  =    287946.43056415
  -Hartree energ DENC   =   -343373.33667333
  -exchange      EXHF   =         0.00000000
  -V(xc)+E(xc)   XCENC  =      3054.91620032
  PAW double counting   =     66476.91500054   -66470.91725211
  entropy T*S    EENTRO =        -0.00000000
  eigenvalues    EBANDS =    -13310.77162151
  atomic energy  EATOM  =     64207.43592568
  Solvation  Ediel_sol  =         0.00000000
  ---------------------------------------------------
  free energy    TOTEN  =      -597.48934675 eV

  energy without entropy =     -597.48934675  energy(sigma->0) =     -597.48934675


--------------------------------------------------------------------------------------------------------




--------------------------------------- Iteration      1(  16)  ---------------------------------------


    POTLOK:  cpu time    0.4013: real time    0.4128
    SETDIJ:  cpu time    0.4181: real time    0.4219
     EDDAV:  cpu time   57.3174: real time   57.3171
       DOS:  cpu time    0.0007: real time    0.0007
    CHARGE:  cpu time    3.6354: real time    3.6353
    MIXING:  cpu time    0.0233: real time    0.0233
    --------------------------------------------
      LOOP:  cpu time   61.7962: real time   61.8111

 eigenvalue-minimisations  :  5408
 total energy-change (2. order) :-0.3565767E-02  (-0.2714666E-03)
 number of electron     640.0000008 magnetization 
 augmentation part      141.2536679 magnetization 

 Broyden mixing:
  rms(total) = 0.87727E-02    rms(broyden)= 0.87724E-02
  rms(prec ) = 0.11374E-01
  weight for this iteration     100.00

 eigenvalues of (default mixing * dielectric matrix)
  average eigenvalue GAMMA=   1.5304
  4.4150  2.6860  2.2315  1.1511  1.1511  0.9978  0.9978  0.8986  0.8986  0.6640
  0.7426

 Free energy of the ion-electron system (eV)
  ---------------------------------------------------
  alpha Z        PSCENC =       871.83850952
  Ewald energy   TEWEN  =    287946.43056415
  -Hartree energ DENC   =   -343403.50176476
  -exchange      EXHF   =         0.00000000
  -V(xc)+E(xc)   XCENC  =      3054.94736329
  PAW double counting   =     66500.32390059   -66494.42935364
  entropy T*S    EENTRO =        -0.00000000
  eigenvalues    EBANDS =    -13280.53805734
  atomic energy  EATOM  =     64207.43592568
  Solvation  Ediel_sol  =         0.00000000
  ---------------------------------------------------
  free energy    TOTEN  =      -597.49291252 eV

  energy without entropy =     -597.49291252  energy(sigma->0) =     -597.49291252


--------------------------------------------------------------------------------------------------------




--------------------------------------- Iteration      1(  17)  ---------------------------------------


    POTLOK:  cpu time    0.3820: real time    0.3935
    SETDIJ:  cpu time    0.4201: real time    0.4201
     EDDAV:  cpu time   60.5179: real time   60.5182
       DOS:  cpu time    0.0006: real time    0.0006
    CHARGE:  cpu time    3.6953: real time    3.6953
    MIXING:  cpu time    0.0222: real time    0.0222
    --------------------------------------------
      LOOP:  cpu time   65.0381: real time   65.0499

 eigenvalue-minimisations  :  5776
 total energy-change (2. order) :-0.4618701E-02  (-0.2908214E-03)
 number of electron     640.0000008 magnetization 
 augmentation part      141.2567687 magnetization 

 Broyden mixing:
  rms(total) = 0.96070E-02    rms(broyden)= 0.96049E-02
  rms(prec ) = 0.11038E-01
  weight for this iteration     100.00

 eigenvalues of (default mixing * dielectric matrix)
  average eigenvalue GAMMA=   1.5935
  5.3075  2.8175  2.0145  2.0145  0.9928  0.9928  1.0024  1.0024  0.8348  0.8348
  0.6976  0.6104

 Free energy of the ion-electron system (eV)
  ---------------------------------------------------
  alpha Z        PSCENC =       871.83850952
  Ewald energy   TEWEN  =    287946.43056415
  -Hartree energ DENC   =   -343419.05671026
  -exchange      EXHF   =         0.00000000
  -V(xc)+E(xc)   XCENC  =      3054.97692770
  PAW double counting   =     66503.28294225   -66497.42987786
  entropy T*S    EENTRO =        -0.00000000
  eigenvalues    EBANDS =    -13264.97581239
  atomic energy  EATOM  =     64207.43592568
  Solvation  Ediel_sol  =         0.00000000
  ---------------------------------------------------
  free energy    TOTEN  =      -597.49753122 eV

  energy without entropy =     -597.49753122  energy(sigma->0) =     -597.49753122


--------------------------------------------------------------------------------------------------------




--------------------------------------- Iteration      1(  18)  ---------------------------------------


    POTLOK:  cpu time    0.3826: real time    0.3926
    SETDIJ:  cpu time    0.4197: real time    0.4197
     EDDAV:  cpu time   57.7838: real time   57.7835
       DOS:  cpu time    0.0006: real time    0.0006
    CHARGE:  cpu time    3.6276: real time    3.6276
    MIXING:  cpu time    0.0213: real time    0.0213
    --------------------------------------------
      LOOP:  cpu time   62.2357: real time   62.2454

 eigenvalue-minimisations  :  5456
 total energy-change (2. order) :-0.3506726E-02  (-0.8200325E-04)
 number of electron     640.0000008 magnetization 
 augmentation part      141.2440461 magnetization 

 Broyden mixing:
  rms(total) = 0.57276E-02    rms(broyden)= 0.57274E-02
  rms(prec ) = 0.66772E-02
  weight for this iteration     100.00

 eigenvalues of (default mixing * dielectric matrix)
  average eigenvalue GAMMA=   1.6234
  6.0608  2.6572  2.6572  1.7087  0.9468  0.9468  1.1883  0.9558  0.9558  0.8398
  0.8398  0.6734  0.6734

 Free energy of the ion-electron system (eV)
  ---------------------------------------------------
  alpha Z        PSCENC =       871.83850952
  Ewald energy   TEWEN  =    287946.43056415
  -Hartree energ DENC   =   -343432.98886111
  -exchange      EXHF   =         0.00000000
  -V(xc)+E(xc)   XCENC  =      3055.02474664
  PAW double counting   =     66491.90114649   -66486.02034630
  entropy T*S    EENTRO =        -0.00000000
  eigenvalues    EBANDS =    -13251.12272301
  atomic energy  EATOM  =     64207.43592568
  Solvation  Ediel_sol  =         0.00000000
  ---------------------------------------------------
  free energy    TOTEN  =      -597.50103795 eV

  energy without entropy =     -597.50103795  energy(sigma->0) =     -597.50103795


--------------------------------------------------------------------------------------------------------




--------------------------------------- Iteration      1(  19)  ---------------------------------------


    POTLOK:  cpu time    0.3849: real time    0.3963
    SETDIJ:  cpu time    0.4198: real time    0.4198
     EDDAV:  cpu time   58.8483: real time   58.8527
       DOS:  cpu time    0.0007: real time    0.0007
    CHARGE:  cpu time    3.6492: real time    3.6492
    MIXING:  cpu time    0.0226: real time    0.0226
    --------------------------------------------
      LOOP:  cpu time   63.3256: real time   63.3413

 eigenvalue-minimisations  :  5584
 total energy-change (2. order) :-0.1759745E-02  (-0.4940897E-04)
 number of electron     640.0000008 magnetization 
 augmentation part      141.2464067 magnetization 

 Broyden mixing:
  rms(total) = 0.21228E-02    rms(broyden)= 0.21206E-02
  rms(prec ) = 0.31494E-02
  weight for this iteration     100.00

 eigenvalues of (default mixing * dielectric matrix)
  average eigenvalue GAMMA=   1.6529
  6.5819  3.1190  2.2357  2.2357  0.9827  0.9827  1.1048  1.1048  0.9183  0.9183
  0.8180  0.8180  0.6879  0.6333

 Free energy of the ion-electron system (eV)
  ---------------------------------------------------
  alpha Z        PSCENC =       871.83850952
  Ewald energy   TEWEN  =    287946.43056415
  -Hartree energ DENC   =   -343438.81210650
  -exchange      EXHF   =         0.00000000
  -V(xc)+E(xc)   XCENC  =      3055.02608247
  PAW double counting   =     66496.87187187   -66491.01291503
  entropy T*S    EENTRO =        -0.00000000
  eigenvalues    EBANDS =    -13245.28072985
  atomic energy  EATOM  =     64207.43592568
  Solvation  Ediel_sol  =         0.00000000
  ---------------------------------------------------
  free energy    TOTEN  =      -597.50279769 eV

  energy without entropy =     -597.50279769  energy(sigma->0) =     -597.50279769


--------------------------------------------------------------------------------------------------------




--------------------------------------- Iteration      1(  20)  ---------------------------------------


    POTLOK:  cpu time    0.3911: real time    0.4025
    SETDIJ:  cpu time    0.4355: real time    0.4355
     EDDAV:  cpu time   59.2748: real time   59.2745
       DOS:  cpu time    0.0007: real time    0.0007
    CHARGE:  cpu time    3.6694: real time    3.6694
    MIXING:  cpu time    0.0213: real time    0.0213
    --------------------------------------------
      LOOP:  cpu time   63.7928: real time   63.8039

 eigenvalue-minimisations  :  5632
 total energy-change (2. order) :-0.2598568E-02  (-0.1743077E-04)
 number of electron     640.0000008 magnetization 
 augmentation part      141.2452794 magnetization 

 Broyden mixing:
  rms(total) = 0.23734E-02    rms(broyden)= 0.23729E-02
  rms(prec ) = 0.28581E-02
  weight for this iteration     100.00

 eigenvalues of (default mixing * dielectric matrix)
  average eigenvalue GAMMA=   1.6771
  6.9851  3.3557  2.4990  2.1378  1.4957  0.9508  0.9508  0.9953  0.9953  0.9505
  0.8839  0.8839  0.7524  0.6847  0.6350

 Free energy of the ion-electron system (eV)
  ---------------------------------------------------
  alpha Z        PSCENC =       871.83850952
  Ewald energy   TEWEN  =    287946.43056415
  -Hartree energ DENC   =   -343442.44582943
  -exchange      EXHF   =         0.00000000
  -V(xc)+E(xc)   XCENC  =      3055.02245807
  PAW double counting   =     66491.05271700   -66485.17103162
  entropy T*S    EENTRO =        -0.00000000
  eigenvalues    EBANDS =    -13241.66870963
  atomic energy  EATOM  =     64207.43592568
  Solvation  Ediel_sol  =         0.00000000
  ---------------------------------------------------
  free energy    TOTEN  =      -597.50539626 eV

  energy without entropy =     -597.50539626  energy(sigma->0) =     -597.50539626


--------------------------------------------------------------------------------------------------------




--------------------------------------- Iteration      1(  21)  ---------------------------------------


    POTLOK:  cpu time    0.3811: real time    0.3924
    SETDIJ:  cpu time    0.4208: real time    0.4208
     EDDAV:  cpu time   54.7310: real time   54.7320
       DOS:  cpu time    0.0006: real time    0.0006
    CHARGE:  cpu time    3.6286: real time    3.6286
    MIXING:  cpu time    0.0238: real time    0.0238
    --------------------------------------------
      LOOP:  cpu time   59.1859: real time   59.1982

 eigenvalue-minimisations  :  5112
 total energy-change (2. order) :-0.2068175E-02  (-0.8491288E-05)
 number of electron     640.0000008 magnetization 
[...]
    -6.564311700 11.369721380  0.000000000     0.000000000  0.087952903  0.000000000
     0.000000000  0.000000000 26.828094240     0.000000000  0.000000000  0.037274358

  length of vectors
    13.128623400 13.128623399 26.828094240     0.087952903  0.087952903  0.037274358


 FORCES acting on ions
    electron-ion (+dipol)            ewald-force                    non-local-force                 convergence-correction
 -----------------------------------------------------------------------------------------------
   -.113E+02 0.359E+02 0.122E+04   0.108E+02 -.354E+02 -.122E+04   0.873E-01 -.877E+00 -.489E+01   0.753E-05 -.680E-05 -.646E-04
   -.159E+02 -.289E+02 0.122E+04   0.159E+02 0.282E+02 -.121E+04   0.670E+00 0.871E+00 -.515E+01   -.469E-05 0.284E-04 -.605E-04
   -.859E+00 0.360E+02 0.118E+04   -.595E-01 -.365E+02 -.118E+04   0.732E+00 -.322E+00 -.516E+01   0.173E-04 0.295E-04 -.108E-04
   -.161E+02 -.351E+02 0.130E+04   0.163E+02 0.352E+02 -.129E+04   -.360E-01 0.268E-01 -.616E+01   0.434E-04 -.163E-04 -.295E-04
   -.801E+01 -.735E+01 0.132E+04   0.803E+01 0.836E+01 -.132E+04   -.196E+00 -.661E+00 -.569E+01   0.340E-04 -.161E-04 -.111E-05
   -.429E+02 -.111E+02 0.124E+04   0.441E+02 0.108E+02 -.123E+04   -.463E+00 0.126E+00 -.483E+01   0.137E-04 0.131E-04 -.419E-04
   -.643E+02 -.334E+02 0.128E+04   0.653E+02 0.325E+02 -.128E+04   0.642E+00 0.591E+00 -.544E+01   -.262E-04 0.184E-04 -.256E-04
   -.248E+02 0.141E+01 0.119E+04   0.241E+02 -.543E+00 -.119E+04   0.373E+00 -.570E+00 -.572E+01   -.181E-04 -.130E-04 0.238E-04
   0.846E+01 -.839E+01 0.123E+04   -.880E+01 0.750E+01 -.122E+04   0.180E+00 0.323E+00 -.582E+01   -.158E-04 0.330E-05 0.137E-04
   0.477E+02 0.374E+02 0.123E+04   -.493E+02 -.365E+02 -.123E+04   0.314E+00 -.141E+01 -.558E+01   0.398E-04 -.619E-05 0.366E-04
   -.294E+02 0.365E+02 0.127E+04   0.299E+02 -.368E+02 -.126E+04   0.701E-01 -.251E+00 -.587E+01   -.140E-04 -.874E-05 -.188E-04
   -.140E+02 0.262E+02 0.137E+04   0.148E+02 -.258E+02 -.137E+04   0.149E+00 -.633E+00 -.570E+01   -.269E-04 -.790E-05 -.164E-04
   0.247E+02 0.636E+01 0.130E+04   -.238E+02 -.741E+01 -.130E+04   -.550E+00 0.606E+00 -.579E+01   -.259E-04 0.205E-04 -.504E-04
   -.364E+01 -.287E+02 0.118E+04   0.402E+01 0.287E+02 -.118E+04   0.231E+00 0.629E+00 -.603E+01   -.408E-04 0.114E-04 0.156E-04
   0.240E+02 0.775E+02 0.134E+04   -.248E+02 -.772E+02 -.133E+04   0.344E+00 -.125E+01 -.491E+01   0.279E-04 -.370E-04 0.804E-05
   0.120E+02 -.190E+02 0.131E+04   -.133E+02 0.192E+02 -.131E+04   0.780E+00 0.203E+00 -.543E+01   0.126E-04 -.990E-05 -.456E-04
   0.313E+02 0.388E+00 -.131E+04   -.326E+02 -.121E+01 0.130E+04   0.693E+00 0.266E+00 0.469E+01   0.365E-04 -.152E-05 0.352E-04
   -.240E+02 0.533E+02 -.128E+04   0.245E+02 -.537E+02 0.128E+04   -.412E-01 -.415E+00 0.543E+01   0.158E-05 0.167E-04 0.651E-04
   -.391E+01 -.403E+02 -.136E+04   0.381E+01 0.399E+02 0.135E+04   0.141E+00 0.372E+00 0.554E+01   -.122E-04 0.194E-04 0.100E-04
   -.244E+02 0.702E+01 -.124E+04   0.236E+02 -.660E+01 0.124E+04   0.583E+00 -.145E+00 0.539E+01   0.199E-04 -.257E-05 -.415E-04
   -.627E+02 -.857E+01 -.122E+04   0.627E+02 0.851E+01 0.122E+04   0.536E+00 0.486E+00 0.508E+01   -.180E-04 0.645E-05 -.390E-04
   0.159E+02 -.698E+02 -.121E+04   -.162E+02 0.712E+02 0.120E+04   -.140E+00 0.110E+00 0.599E+01   0.286E-04 -.661E-05 0.114E-04
   -.374E+02 0.882E+01 -.120E+04   0.375E+02 -.934E+01 0.120E+04   0.275E+00 0.232E+00 0.438E+01   0.234E-04 0.124E-04 0.205E-04
   0.444E+02 0.216E+02 -.130E+04   -.434E+02 -.216E+02 0.129E+04   -.916E+00 -.211E+00 0.571E+01   -.151E-04 0.346E-05 -.301E-04
   0.416E+02 -.464E+01 -.128E+04   -.412E+02 0.456E+01 0.128E+04   -.623E+00 -.202E+00 0.564E+01   -.190E-04 0.585E-05 0.100E-04
   0.945E+01 -.303E+02 -.132E+04   -.855E+01 0.292E+02 0.132E+04   -.353E+00 0.800E+00 0.469E+01   -.809E-05 0.342E-04 -.479E-04
   0.505E+01 -.262E+02 -.134E+04   -.604E+01 0.265E+02 0.133E+04   0.433E+00 0.597E+00 0.561E+01   0.277E-04 -.255E-04 -.222E-04
   -.354E+02 0.217E+02 -.109E+04   0.364E+02 -.213E+02 0.108E+04   0.335E+00 -.721E-01 0.474E+01   -.114E-04 -.911E-05 0.395E-04
   -.174E+02 -.413E+02 -.120E+04   0.180E+02 0.418E+02 0.120E+04   -.102E+00 0.401E+00 0.556E+01   0.196E-05 -.124E-04 0.715E-04
   -.111E+02 0.247E+02 -.129E+04   0.109E+02 -.249E+02 0.129E+04   0.500E+00 -.396E+00 0.579E+01   -.281E-04 0.157E-04 0.458E-04
   -.671E+00 0.131E+02 -.128E+04   0.590E+00 -.134E+02 0.128E+04   0.445E+00 0.189E+00 0.588E+01   -.310E-04 -.115E-04 -.236E-04
   -.716E+01 0.237E+02 -.123E+04   0.649E+01 -.236E+02 0.122E+04   0.515E+00 -.243E+00 0.589E+01   0.945E-05 -.195E-04 0.204E-04
   0.319E+02 -.100E+02 -.161E+04   -.356E+02 0.115E+02 0.162E+04   0.374E+01 -.143E+01 -.163E+02   0.159E-05 -.331E-05 -.132E-04
   0.259E+02 0.203E+02 -.161E+04   -.273E+02 -.218E+02 0.163E+04   0.108E+01 0.129E+01 -.173E+02   0.481E-05 -.558E-05 -.638E-05
   0.151E+02 0.253E+01 -.159E+04   -.160E+02 -.230E+01 0.160E+04   0.737E+00 -.423E+00 -.161E+02   0.337E-05 -.536E-05 -.402E-04
   0.244E+02 0.214E+02 -.159E+04   -.257E+02 -.222E+02 0.161E+04   0.116E+01 0.622E+00 -.162E+02   -.106E-05 0.111E-04 -.230E-04
   -.395E+01 -.124E+02 -.157E+04   0.567E+01 0.117E+02 0.159E+04   -.169E+01 0.953E+00 -.171E+02   -.134E-04 -.873E-06 -.302E-04
   -.321E+02 0.150E+02 -.161E+04   0.338E+02 -.147E+02 0.163E+04   -.160E+01 -.527E+00 -.172E+02   -.786E-05 -.695E-05 -.231E-04
   0.172E+02 -.294E+02 -.164E+04   -.167E+02 0.300E+02 0.166E+04   -.890E+00 -.390E+00 -.183E+02   0.560E-07 -.615E-05 -.337E-04
   -.909E+01 0.396E+02 -.163E+04   0.817E+01 -.417E+02 0.164E+04   0.103E+01 0.159E+01 -.178E+02   -.296E-05 -.530E-06 -.421E-04
   -.990E+01 0.487E+02 -.161E+04   0.979E+01 -.530E+02 0.163E+04   0.273E+00 0.365E+01 -.168E+02   0.594E-05 0.993E-05 -.405E-04
   0.134E+02 -.543E+01 -.163E+04   -.160E+02 0.368E+01 0.165E+04   0.286E+01 0.170E+01 -.183E+02   0.279E-05 0.346E-05 -.394E-04
   -.271E+02 -.865E+01 -.158E+04   0.267E+02 0.108E+02 0.160E+04   0.893E+00 -.242E+01 -.171E+02   -.598E-06 0.988E-06 -.262E-04
   -.223E+01 -.515E+01 -.157E+04   0.397E+01 0.471E+01 0.158E+04   -.180E+01 0.454E+00 -.168E+02   0.875E-05 0.207E-05 -.180E-04
   -.270E+02 -.462E+01 -.161E+04   0.299E+02 0.555E+01 0.163E+04   -.285E+01 -.905E+00 -.177E+02   0.632E-05 -.854E-05 -.174E-04
   0.888E+01 -.294E+02 -.159E+04   -.942E+01 0.298E+02 0.161E+04   0.213E+00 0.245E-01 -.156E+02   0.178E-05 0.252E-06 -.274E-04
   0.743E+01 -.547E+01 -.157E+04   -.821E+01 0.755E+01 0.159E+04   0.821E+00 -.240E+01 -.160E+02   0.106E-05 -.684E-05 -.353E-04
   -.754E+00 0.114E+02 -.157E+04   -.572E+00 -.126E+02 0.158E+04   0.146E+01 0.131E+01 -.168E+02   -.395E-05 0.122E-04 -.535E-05
   -.268E+02 0.540E+01 0.163E+04   0.261E+02 -.437E+01 -.165E+04   0.110E+01 -.133E+01 0.182E+02   -.898E-05 0.439E-05 0.262E-04
   -.130E+01 -.199E+02 0.161E+04   0.609E+00 0.205E+02 -.163E+04   0.702E+00 -.496E+00 0.174E+02   -.554E-05 -.216E-05 0.705E-05
   0.204E+02 0.131E+02 0.159E+04   -.238E+02 -.161E+02 -.161E+04   0.304E+01 0.301E+01 0.173E+02   -.109E-05 -.380E-05 0.147E-04
   -.151E+02 -.185E+02 0.156E+04   0.155E+02 0.190E+02 -.158E+04   -.289E+00 -.304E+00 0.158E+02   -.167E-05 -.290E-05 0.106E-04
   0.333E+01 -.617E+01 0.156E+04   -.272E+01 0.577E+01 -.157E+04   -.822E+00 0.329E+00 0.151E+02   -.490E-05 0.135E-05 0.244E-04
   -.577E+02 -.961E+01 0.158E+04   0.596E+02 0.110E+02 -.160E+04   -.130E+01 -.173E+01 0.154E+02   -.862E-05 0.464E-06 0.172E-04
   -.337E+01 -.173E+02 0.154E+04   0.221E+01 0.175E+02 -.155E+04   0.858E+00 0.845E-01 0.141E+02   -.291E-05 -.613E-05 -.257E-05
   0.879E+01 0.119E+01 0.164E+04   -.103E+02 -.151E+01 -.166E+04   0.137E+01 0.409E+00 0.183E+02   -.690E-06 -.483E-05 0.239E-04
   0.101E+02 -.194E+02 0.161E+04   -.101E+02 0.216E+02 -.163E+04   -.150E+00 -.199E+01 0.167E+02   0.317E-06 0.355E-05 0.212E-04
   0.185E+02 0.379E+01 0.160E+04   -.189E+02 -.356E+01 -.162E+04   0.285E+00 -.282E+00 0.185E+02   0.188E-05 0.403E-05 0.274E-04
   0.344E+02 0.415E+00 0.160E+04   -.368E+02 0.134E+01 -.162E+04   0.235E+01 -.159E+01 0.168E+02   0.630E-05 -.494E-05 0.246E-04
   0.348E+02 0.952E+01 0.159E+04   -.363E+02 -.875E+01 -.160E+04   0.100E+01 -.921E+00 0.152E+02   0.405E-05 -.159E-05 0.886E-05
   0.152E+02 0.608E+01 0.160E+04   -.154E+02 -.610E+01 -.162E+04   -.131E-01 -.724E-01 0.161E+02   0.135E-04 0.652E-05 0.126E-04
   0.416E+02 -.557E+01 0.162E+04   -.433E+02 0.629E+01 -.164E+04   0.123E+01 -.972E+00 0.181E+02   0.938E-05 0.115E-05 0.183E-04
   -.271E+01 0.440E+02 0.157E+04   0.373E+01 -.470E+02 -.159E+04   -.114E+01 0.269E+01 0.161E+02   -.627E-06 -.904E-07 0.246E-04
   -.974E+01 -.156E+02 0.164E+04   0.998E+01 0.179E+02 -.166E+04   0.227E-01 -.205E+01 0.182E+02   -.210E-05 0.555E-05 0.188E-04
   -.927E+01 -.192E+02 -.160E+02   0.929E+01 0.192E+02 0.162E+02   0.165E+00 0.720E+00 -.142E+01   -.105E-05 0.213E-05 -.185E-05
   0.293E+01 0.161E+02 -.142E+02   -.285E+01 -.162E+02 0.143E+02   -.502E+00 -.202E+00 0.268E+00   0.793E-06 0.304E-05 -.791E-05
   0.219E+02 -.256E+02 -.228E+02   -.218E+02 0.255E+02 0.227E+02   -.141E+01 0.130E+01 0.269E+00   -.122E-05 0.363E-05 -.637E-05
   0.797E+01 0.783E+01 0.552E+01   -.806E+01 -.772E+01 -.548E+01   0.394E+00 -.374E+00 0.342E+00   0.740E-05 -.395E-05 0.478E-06
   0.151E+02 -.608E+01 -.294E+01   -.152E+02 0.603E+01 0.310E+01   0.123E-01 -.164E+00 -.121E+01   0.799E-05 -.256E-05 0.112E-05
   -.175E+02 0.156E+01 0.466E+01   0.173E+02 -.141E+01 -.477E+01   0.164E+01 -.475E+00 0.110E+01   0.201E-05 -.158E-05 -.107E-05
   0.970E+01 -.152E+02 0.248E+01   -.948E+01 0.152E+02 -.255E+01   -.148E+01 0.486E+00 0.409E+00   -.249E-05 0.343E-07 -.141E-05
   -.137E+02 -.112E+02 -.358E+02   0.136E+02 0.111E+02 0.360E+02   0.376E+00 0.121E+01 -.168E+00   -.508E-05 0.475E-05 -.202E-05
   -.701E+00 -.671E+01 -.781E+01   0.876E+00 0.689E+01 0.791E+01   -.898E+00 -.621E+00 -.156E+00   -.914E-05 0.177E-05 0.100E-05
   -.147E+02 -.240E+02 0.120E+02   0.146E+02 0.237E+02 -.121E+02   0.991E+00 0.135E+01 -.342E+00   0.353E-05 0.826E-06 0.246E-05
   -.723E+01 0.768E+00 0.988E+01   0.719E+01 -.913E+00 -.101E+02   0.433E+00 0.418E+00 0.947E+00   0.234E-05 -.286E-05 0.390E-06
   0.256E+02 0.153E+02 0.162E+02   -.258E+02 -.153E+02 -.161E+02   -.813E+00 -.734E+00 -.147E+01   -.143E-05 -.116E-05 0.407E-05
   0.238E+02 0.446E+01 0.484E+02   -.237E+02 -.446E+01 -.486E+02   -.105E+01 -.162E+00 0.128E+00   0.269E-06 0.111E-05 0.800E-05
   0.758E+01 -.169E+01 -.148E+02   -.751E+01 0.151E+01 0.149E+02   -.258E+00 0.624E+00 -.341E+00   -.658E-05 0.328E-05 -.189E-05
   0.110E+02 -.282E+02 -.295E+02   -.108E+02 0.281E+02 0.296E+02   -.480E+00 0.830E+00 -.229E+00   -.280E-06 -.109E-05 -.302E-05
   0.976E+01 0.320E+02 0.227E+02   -.972E+01 -.321E+02 -.228E+02   -.529E+00 0.114E+00 0.551E+00   0.816E-06 -.182E-05 0.117E-05
 -----------------------------------------------------------------------------------------------
   -.159E+02 -.138E+01 0.774E+01   0.291E-12 0.114E-12 -.405E-11   0.159E+02 0.139E+01 -.775E+01   0.330E-04 0.300E-04 -.293E-03
 
 
 POSITION                                       TOTAL-FORCE (eV/Angst)
 -----------------------------------------------------------------------------------
      0.00379      1.94966     12.16995        -0.413464     -0.386912     -0.992992
     -1.68464      4.70825     12.20675         0.706051      0.137296     -0.977056
     -3.27918      7.60899     12.23330        -0.186262     -0.818772     -0.895100
     -4.92839     10.45766     12.12755         0.171726      0.192824     -0.027319
      3.25537      1.87715     12.13431        -0.169423      0.349042     -0.635104
      1.58006      4.74897     12.17459         0.737174     -0.145806     -0.898313
     -0.14875      7.58592     12.12428         1.685911     -0.284055      0.187898
     -1.61781     10.41436     12.25648        -0.286452      0.292758     -1.096710
      6.57956      1.95016     12.20370        -0.158672     -0.574678     -0.421543
      5.01441      4.79935     12.19009        -1.254101     -0.439151     -0.475588
      3.25887      7.61084     12.16186         0.550741     -0.548348     -0.544198
      1.55184     10.47799     12.04809         0.999492     -0.197170      0.058595
      9.87108      1.93635     12.12553         0.346745     -0.441490     -0.516172
      8.18884      4.67813     12.25997         0.606283      0.570693     -0.896570
      6.61828      7.65980     12.03446        -0.427056     -0.941133      0.311151
      4.99138     10.38929     12.10181        -0.576286      0.411211     -0.593637
      1.59486      0.97651     14.73705        -0.617925     -0.551822     -0.121490
     -0.02389      3.87302     14.66789         0.477787     -0.792705      0.812653
     -1.60581      6.63490     14.76215         0.042142     -0.037590      0.105149
     -3.30877      9.46510     14.62470        -0.142497      0.278254      1.423605
      4.87799      0.88828     14.64409         0.592258      0.423245      1.094787
      3.25729      3.65168     14.62609        -0.491418      1.521137      0.566659
      1.63222      6.66468     14.63822         0.335921     -0.291702      1.119607
      0.04631      9.51599     14.69164         0.132160     -0.198976      0.541805
      8.28755      0.99022     14.68474        -0.271787     -0.282545      0.261109
      6.48516      3.77105     14.76764         0.543014     -0.358445      0.278196
      4.90331      6.52879     14.77467        -0.551893      0.948670     -0.617394
      3.21749      9.47597     14.48669         1.339119      0.315149      1.958958
     11.46394      0.83616     14.56544         0.425184      0.890355      1.600517
      9.86432      3.79784     14.67580         0.323760     -0.593725      0.914525
      8.17412      6.62846     14.67630         0.364499     -0.100912      0.387000
      6.54510      9.46171     14.58994        -0.162516     -0.226365      1.057474
     -0.01722      1.84477     15.89675         0.087249      0.082223     -0.559595
     -1.56116      4.78295     15.83516        -0.293239     -0.165790      0.194732
     -3.25929      7.62455     15.81631        -0.156963     -0.186504     -0.019652
     -4.85925     10.43438     15.81106        -0.165339     -0.193008     -0.076750
      3.25710      1.81461     15.73814         0.020759      0.269438      0.612176
      1.59700      4.80332     15.92709         0.082506     -0.241404     -0.833132
      0.13792      7.54781     15.98233        -0.428993      0.229932     -0.913013
     -1.63109     10.55793     15.91907         0.104990     -0.579596     -0.538968
      6.51008      2.02614     15.90538         0.165645     -0.633288     -0.274756
      4.80169      4.69699     15.96652         0.309471     -0.047143     -0.667844
      3.22804      7.65267     15.83800         0.412092     -0.248054     -0.532497
      1.70233     10.45010     15.73077        -0.064422      0.014317      0.259796
      9.87300      1.84217     15.87710         0.026225      0.028939     -0.492167
      8.26671      4.60946     15.83829        -0.328461      0.459204      0.073528
      6.57126      7.60291     15.78084         0.044449     -0.319471      0.110265
      4.86769     10.32372     15.72452         0.138444      0.153867     -0.036270
      1.54478      0.97991     10.86682         0.367520     -0.302896      0.864156
     -0.02232      3.78347     10.99246         0.007991      0.108961      0.160396
     -1.62420      6.62632     11.05632        -0.322464      0.011540     -0.254820
     -3.25639      9.44997     11.10298         0.160440      0.153825     -0.310596
      4.97470      0.93436     11.09802        -0.212604     -0.077179     -0.265273
      3.10185      3.80101     10.98308         0.617993     -0.339676      0.192003
      1.67029      6.62157     11.13352        -0.305521      0.336938     -0.675493
      0.02290      9.44183     10.85989        -0.183111      0.084770      0.809626
      8.24132      0.95326     10.95124        -0.200102      0.171245      0.184404
      6.63597      3.80557     10.99666        -0.097316     -0.052815      0.362091
      5.06214      6.52113     10.93405        -0.069203      0.172831      0.298547
      3.40063      9.48076     10.99611        -0.518183     -0.159349     -0.182781
     11.55572      0.96782     10.96730        -0.147890     -0.092742      0.195184
      9.95965      3.86060     10.94747        -0.514949     -0.253811      0.386567
      8.30130      6.68713     11.03298        -0.123627     -0.338675      0.074702
      6.58324      9.43647     10.92305         0.261981      0.309005     -0.045845
      6.59274     11.28951     13.47436         0.191767      0.710225     -1.178850
     -1.61384      2.86107     13.38923        -0.417840     -0.262904      0.362125
     -3.17083      5.59081     13.47168        -1.308308      1.210794      0.204644
      8.19731      8.52906     13.36065         0.300578     -0.261193      0.387772
     -3.28044     11.35552     13.46069        -0.121658     -0.206242     -1.049517
      1.51871      2.84627     13.37307         1.413179     -0.327840      0.987173
      0.08876      5.70167     13.41581        -1.262269      0.488239      0.335928
     -1.63964      8.45089     13.45990         0.284576      1.049268      0.046942
      6.64873      0.02417     13.41451        -0.723276     -0.437702     -0.048426
      4.83339      2.72860     13.43855         0.830602      1.073750     -0.419876
      3.31163      5.64522     13.38091         0.396779      0.273335      0.734585
      1.66101      8.61273     13.44831        -1.058623     -0.720628     -1.386730
      9.92951      0.03248     13.32192        -0.915900     -0.162467     -0.093247
      8.22369      2.79870     13.44415        -0.182081      0.449870     -0.261103
      6.60918      5.56999     13.50861        -0.280374      0.645726     -0.149483
      5.00277      8.47603     13.29138        -0.492731      0.003803      0.458836
 -----------------------------------------------------------------------------------
    total drift:                               -0.005624      0.002580     -0.003008


--------------------------------------------------------------------------------------------------------



  FREE ENERGIE OF THE ION-ELECTRON SYSTEM (eV)
  ---------------------------------------------------
  free  energy   TOTEN  =      -597.51005904 eV

  energy  without entropy=     -597.51005904  energy(sigma->0) =     -597.51005904
 


--------------------------------------------------------------------------------------------------------


    POTLOK:  cpu time    0.7967: real time    0.7973


--------------------------------------------------------------------------------------------------------


     LOOP+:  cpu time 1897.3186: real time 1897.7462
    4ORBIT:  cpu time    0.0000: real time    0.0000

 total amount of memory used by VASP MPI-rank0   234713. kBytes
=======================================================================

   base      :      30000. kBytes
   nonlr-proj:      19445. kBytes
   fftplans  :      66973. kBytes
   grid      :      38377. kBytes
   one-center:        108. kBytes
   wavefun   :      79810. kBytes
 
  
  
 General timing and accounting informations for this job:
 ========================================================
  
                  Total CPU time used (sec):     1931.165
                            User time (sec):     1920.430
                          System time (sec):       10.735
                         Elapsed time (sec):     1931.842
  
                   Maximum memory used (kb):      430132.
                   Average memory used (kb):           0.
  
                          Minor page faults:       220199
                          Major page faults:            0
                 Voluntary context switches:         2215
