<?xml version="1.0" encoding="ISO-8859-1"?>
<modeling>
 <generator>
  <i name="program" type="string">vasp </i>
  <i name="version" type="string">5.4.4.18Apr17-6-g9f103f2a35  </i>
  <i name="subversion" type="string">(build Oct 31 2019 15:01:46) complex            parallel </i>
  <i name="platform" type="string">LinuxIFC </i>
  <i name="date" type="string">2024 04 30 </i>
  <i name="time" type="string">09:57:33 </i>
 </generator>
 <incar>
  <i type="int" name="ISTART">     0</i>
  <i type="string" name="PREC">anormal</i>
  <i type="logical" name="ADDGRID"> T  </i>
  <i type="int" name="IBRION">    -1</i>
  <i name="EDIFF">      0.00000100</i>
  <i name="EDIFFG">     -0.01000000</i>
  <i type="int" name="NSW">     1</i>
  <i type="int" name="ISIF">     2</i>
  <i type="int" name="ISYM">     2</i>
  <i name="ENCUT">    600.00000000</i>
  <i name="POTIM">      1.00000000</i>
  <i type="string" name="LREAL"> Auto.</i>
  <i type="int" name="ISMEAR">     0</i>
  <i name="SIGMA">      0.05000000</i>
  <i name="KSPACING">      0.25000000</i>
  <i type="logical" name="LWAVE"> F  </i>
  <i type="logical" name="LCHARG"> F  </i>
  <i type="logical" name="LSCALAPACK"> F  </i>
  <v type="int" name="KPOINT_BSE">    -1     0     0     0</v>
 </incar>
 <structure name="primitive_cell" >
  <crystal>
   <varray name="basis" >
    <v>      13.79398668       0.00000000       0.00000000 </v>
    <v>      -6.89699334      11.94594288       0.00000000 </v>
    <v>       0.00000000       0.00000000      27.81022107 </v>
   </varray>
   <i name="volume">   4582.62876984 </i>
   <varray name="rec_basis" >
    <v>       0.07249536       0.04185521       0.00000000 </v>
    <v>       0.00000000       0.08371043       0.00000000 </v>
    <v>       0.00000000       0.00000000       0.03595800 </v>
   </varray>
  </crystal>
  <varray name="positions" >
   <v>       0.07040591       0.16044642      -0.45789284 </v>
   <v>      -0.00274221      -0.00226670      -0.49908099 </v>
   <v>      -0.00287077       0.25598430       0.49978869 </v>
   <v>      -0.07427749       0.09990934      -0.39583485 </v>
   <v>       0.15767378       0.09364848      -0.39781299 </v>
   <v>       0.26308564       0.26036370       0.49737457 </v>
   <v>       0.16354902       0.33769617      -0.39448867 </v>
   <v>      -0.08595493       0.08750033       0.45344368 </v>
   <v>       0.16036041       0.32329469       0.45545706 </v>
   <v>       0.17287066       0.08577639       0.45907264 </v>
   <v>      -0.17488433      -0.08572876      -0.45769490 </v>
   <v>       0.07413141       0.41093903      -0.45752305 </v>
   <v>      -0.17548785       0.16725950      -0.45447610 </v>
   <v>       0.09352651      -0.08424083      -0.45399377 </v>
   <v>       0.34063128       0.41727474      -0.45420794 </v>
   <v>       0.34639554       0.17169874      -0.45707708 </v>
   <v>      -0.25016859       0.00906325       0.49838207 </v>
   <v>       0.08498853       0.17533447       0.38940454 </v>
   <v>       0.24658875      -0.49892990       0.49757145 </v>
   <v>      -0.09092868      -0.16698929      -0.39453976 </v>
   <v>       0.25600412      -0.00225968      -0.49567780 </v>
   <v>      -0.08531501       0.34287386      -0.39233248 </v>
   <v>      -0.09173018       0.32734263       0.45607252 </v>
   <v>      -0.07766359      -0.17351433       0.45639597 </v>
   <v>       0.43124152       0.34267326      -0.39423058 </v>
   <v>       0.41907076       0.33946221       0.45700618 </v>
   <v>      -0.16748695      -0.08609475       0.39737054 </v>
   <v>      -0.24709305      -0.24489087       0.49855729 </v>
   <v>      -0.24927853       0.24639173       0.49994168 </v>
   <v>       0.08769358      -0.07676701       0.39750332 </v>
   <v>      -0.32782977      -0.16148275      -0.39818280 </v>
   <v>      -0.00934374       0.49246820      -0.49726167 </v>
   <v>      -0.17627263       0.16442283       0.39400307 </v>
   <v>       0.33594063       0.16918130       0.39921830 </v>
   <v>       0.33134074       0.40872330       0.39559098 </v>
   <v>       0.08937698       0.41897080       0.39263265 </v>
   <v>       0.00183710      -0.25345611      -0.49916474 </v>
   <v>       0.15934480      -0.42676438      -0.38874380 </v>
   <v>      -0.49329804       0.26367625       0.49771986 </v>
   <v>      -0.35319236       0.06850868      -0.39536556 </v>
   <v>       0.40221108      -0.41925248      -0.39126308 </v>
   <v>      -0.49250831      -0.49703987      -0.49853998 </v>
   <v>      -0.32941427      -0.16479159       0.45239604 </v>
   <v>       0.42248782       0.08935367      -0.39832669 </v>
   <v>       0.16612645      -0.17109154      -0.39191290 </v>
   <v>      -0.33854788       0.08725373       0.45299497 </v>
   <v>       0.16929759      -0.41719030       0.45782107 </v>
   <v>      -0.16227166      -0.32696679      -0.45282137 </v>
   <v>      -0.41933165      -0.09116614      -0.45934295 </v>
   <v>       0.16041037      -0.17404682       0.45572714 </v>
   <v>       0.32558467      -0.34635942      -0.45462122 </v>
   <v>       0.42486212      -0.41685730       0.45732478 </v>
   <v>      -0.16604356       0.42076177      -0.45282475 </v>
   <v>       0.42269043       0.08513936       0.45667846 </v>
   <v>       0.32917654      -0.09270943      -0.45575910 </v>
   <v>      -0.40686898       0.41618508      -0.45729314 </v>
   <v>      -0.41555641       0.16094324      -0.45518930 </v>
   <v>      -0.41487102      -0.32817979      -0.45699334 </v>
   <v>       0.07756479      -0.34229820      -0.45274833 </v>
   <v>      -0.40771737      -0.08790865       0.39408642 </v>
   <v>       0.49801276      -0.25342220       0.49725699 </v>
   <v>       0.32566676      -0.07520865       0.39360947 </v>
   <v>       0.49688316      -0.00423369       0.49496139 </v>
   <v>      -0.16570625       0.41661613       0.39413113 </v>
   <v>      -0.32906437       0.32838550      -0.39080909 </v>
   <v>      -0.16051178      -0.33177197       0.39096436 </v>
   <v>       0.25091014      -0.25634640       0.49917463 </v>
   <v>      -0.33892228      -0.41470245      -0.39507866 </v>
   <v>      -0.08615689      -0.42304937      -0.39374758 </v>
   <v>       0.33934403      -0.32649656       0.39621206 </v>
   <v>      -0.33285296      -0.41510689       0.45444038 </v>
   <v>      -0.08548097      -0.42132977       0.45775432 </v>
   <v>      -0.32971342       0.33896114       0.45401299 </v>
   <v>      -0.40464324       0.42471139       0.39468129 </v>
   <v>      -0.23806134      -0.49289331      -0.49769928 </v>
   <v>      -0.41534199      -0.32731431       0.39295107 </v>
   <v>       0.09265945      -0.33635766       0.39478186 </v>
   <v>      -0.41759137       0.17545638       0.39352065 </v>
   <v>       0.41382615      -0.16642636      -0.39745804 </v>
   <v>       0.41024351      -0.17204305       0.45522869 </v>
  </varray>
 </structure>
 <varray name="primitive_index" >
  <v type="int" >        1 </v>
  <v type="int" >       65 </v>
  <v type="int" >       66 </v>
  <v type="int" >       61 </v>
  <v type="int" >       49 </v>
  <v type="int" >       70 </v>
  <v type="int" >       50 </v>
  <v type="int" >       29 </v>
  <v type="int" >       18 </v>
  <v type="int" >       17 </v>
  <v type="int" >       16 </v>
  <v type="int" >        2 </v>
  <v type="int" >       13 </v>
  <v type="int" >        4 </v>
  <v type="int" >        6 </v>
  <v type="int" >        5 </v>
  <v type="int" >       77 </v>
  <v type="int" >       33 </v>
  <v type="int" >       71 </v>
  <v type="int" >       64 </v>
  <v type="int" >       69 </v>
  <v type="int" >       62 </v>
  <v type="int" >       30 </v>
  <v type="int" >       32 </v>
  <v type="int" >       54 </v>
  <v type="int" >       22 </v>
  <v type="int" >       48 </v>
  <v type="int" >       80 </v>
  <v type="int" >       78 </v>
  <v type="int" >       36 </v>
  <v type="int" >       60 </v>
  <v type="int" >       67 </v>
  <v type="int" >       45 </v>
  <v type="int" >       37 </v>
  <v type="int" >       38 </v>
  <v type="int" >       34 </v>
  <v type="int" >       68 </v>
  <v type="int" >       51 </v>
  <v type="int" >       74 </v>
  <v type="int" >       57 </v>
  <v type="int" >       55 </v>
  <v type="int" >       75 </v>
  <v type="int" >       28 </v>
  <v type="int" >       53 </v>
  <v type="int" >       52 </v>
  <v type="int" >       25 </v>
  <v type="int" >       19 </v>
  <v type="int" >       15 </v>
  <v type="int" >       12 </v>
  <v type="int" >       20 </v>
  <v type="int" >        7 </v>
  <v type="int" >       23 </v>
  <v type="int" >       14 </v>
  <v type="int" >       21 </v>
  <v type="int" >        8 </v>
  <v type="int" >       10 </v>
  <v type="int" >        9 </v>
  <v type="int" >       11 </v>
  <v type="int" >        3 </v>
  <v type="int" >       44 </v>
  <v type="int" >       76 </v>
  <v type="int" >       40 </v>
  <v type="int" >       73 </v>
  <v type="int" >       46 </v>
  <v type="int" >       58 </v>
  <v type="int" >       47 </v>
  <v type="int" >       72 </v>
  <v type="int" >       59 </v>
  <v type="int" >       63 </v>
  <v type="int" >       39 </v>
  <v type="int" >       27 </v>
  <v type="int" >       31 </v>
  <v type="int" >       26 </v>
  <v type="int" >       42 </v>
  <v type="int" >       79 </v>
  <v type="int" >       43 </v>
  <v type="int" >       35 </v>
  <v type="int" >       41 </v>
  <v type="int" >       56 </v>
  <v type="int" >       24 </v>
 </varray>
 <kpoints>
  <generation param="Gamma">
   <v type="int" name="divisions">       3        3        1 </v>
   <v name="usershift">      0.00000000       0.00000000       0.00000000 </v>
   <v name="genvec1">      0.33333333      -0.00000000       0.00000000 </v>
   <v name="genvec2">      0.00000000       0.33333333       0.00000000 </v>
   <v name="genvec3">      0.00000000       0.00000000       1.00000000 </v>
   <v name="shift">      0.00000000       0.00000000       0.00000000 </v>
  </generation>
  <varray name="kpointlist" >
   <v>       0.00000000       0.00000000       0.00000000 </v>
   <v>       0.33333333      -0.00000000       0.00000000 </v>
   <v>       0.00000000       0.33333333       0.00000000 </v>
   <v>       0.33333333       0.33333333       0.00000000 </v>
   <v>      -0.33333333       0.33333333       0.00000000 </v>
  </varray>
  <varray name="weights" >
   <v>       0.11111111 </v>
   <v>       0.22222222 </v>
   <v>       0.22222222 </v>
   <v>       0.22222222 </v>
   <v>       0.22222222 </v>
  </varray>
 </kpoints>
 <parameters>
  <separator name="general" >
   <i type="string" name="SYSTEM">unknown system</i>
   <i type="logical" name="LCOMPAT"> F  </i>
  </separator>
  <separator name="electronic" >
   <i type="string" name="PREC">anorma</i>
   <i name="ENMAX">    600.00000000</i>
   <i name="ENAUG">    644.87300000</i>
   <i name="EDIFF">      0.00000100</i>
   <i type="int" name="IALGO">    38</i>
   <i type="int" name="IWAVPR">    10</i>
   <i type="int" name="NBANDS">   384</i>
   <i name="NELECT">    640.00000000</i>
   <i type="int" name="TURBO">     0</i>
   <i type="int" name="IRESTART">     0</i>
   <i type="int" name="NREBOOT">     0</i>
   <i type="int" name="NMIN">     0</i>
   <i name="EREF">      0.00000000</i>
   <separator name="electronic smearing" >
    <i type="int" name="ISMEAR">     0</i>
    <i name="SIGMA">      0.05000000</i>
    <i name="KSPACING">      0.25000000</i>
    <i type="logical" name="KGAMMA"> T  </i>
   </separator>
   <separator name="electronic projectors" >
    <i type="logical" name="LREAL"> T  </i>
    <v name="ROPT">     -0.00025000     -0.00025000     -0.00025000</v>
    <i type="int" name="LMAXPAW">  -100</i>
    <i type="int" name="LMAXMIX">     2</i>
    <i type="logical" name="NLSPLINE"> F  </i>
   </separator>
   <separator name="electronic startup" >
    <i type="int" name="ISTART">     0</i>
    <i type="int" name="ICHARG">     2</i>
    <i type="int" name="INIWAV">     1</i>
   </separator>
   <separator name="electronic spin" >
    <i type="int" name="ISPIN">     1</i>
    <i type="logical" name="LNONCOLLINEAR"> F  </i>
    <v name="MAGMOM">      1.00000000      1.00000000      1.00000000      1.00000000      1.00000000      1.00000000      1.00000000      1.00000000      1.00000000      1.00000000      1.00000000      1.00000000      1.00000000      1.00000000      1.00000000      1.00000000      1.00000000      1.00000000      1.00000000      1.00000000
      1.00000000      1.00000000      1.00000000      1.00000000      1.00000000      1.00000000      1.00000000      1.00000000      1.00000000      1.00000000      1.00000000      1.00000000      1.00000000      1.00000000      1.00000000      1.00000000      1.00000000      1.00000000      1.00000000      1.00000000
      1.00000000      1.00000000      1.00000000      1.00000000      1.00000000      1.00000000      1.00000000      1.00000000      1.00000000      1.00000000      1.00000000      1.00000000      1.00000000      1.00000000      1.00000000      1.00000000      1.00000000      1.00000000      1.00000000      1.00000000
      1.00000000      1.00000000      1.00000000      1.00000000      1.00000000      1.00000000      1.00000000      1.00000000      1.00000000      1.00000000      1.00000000      1.00000000      1.00000000      1.00000000      1.00000000      1.00000000      1.00000000      1.00000000      1.00000000      1.00000000
</v>
    <i name="NUPDOWN">     -1.00000000</i>
    <i type="logical" name="LSORBIT"> F  </i>
    <v name="SAXIS">      0.00000000      0.00000000      1.00000000</v>
    <i type="logical" name="LSPIRAL"> F  </i>
    <v name="QSPIRAL">      0.00000000      0.00000000      0.00000000</v>
    <i type="logical" name="LZEROZ"> F  </i>
   </separator>
   <separator name="electronic exchange-correlation" >
    <i type="logical" name="LASPH"> F  </i>
    <i type="logical" name="LMETAGGA"> F  </i>
   </separator>
   <separator name="electronic convergence" >
    <i type="int" name="NELM">    60</i>
    <i type="int" name="NELMDL">    -5</i>
    <i type="int" name="NELMIN">     2</i>
    <i name="ENINI">    600.00000000</i>
    <separator name="electronic convergence detail" >
     <i type="logical" name="LDIAG"> T  </i>
     <i type="logical" name="LSUBROT"> F  </i>
     <i name="WEIMIN">      0.00000000</i>
     <i name="EBREAK">      0.00000000</i>
     <i name="DEPER">      0.30000000</i>
     <i type="int" name="NRMM">     4</i>
     <i name="TIME">      0.40000000</i>
    </separator>
   </separator>
   <separator name="electronic mixer" >
    <i name="AMIX">      0.40000000</i>
    <i name="BMIX">      1.00000000</i>
    <i name="AMIN">      0.10000000</i>
    <i name="AMIX_MAG">      1.60000000</i>
    <i name="BMIX_MAG">      1.00000000</i>
    <separator name="electronic mixer details" >
     <i type="int" name="IMIX">     4</i>
     <i type="logical" name="MIXFIRST"> F  </i>
     <i type="int" name="MAXMIX">   -45</i>
     <i name="WC">    100.00000000</i>
     <i type="int" name="INIMIX">     1</i>
     <i type="int" name="MIXPRE">     1</i>
     <i type="int" name="MREMOVE">     5</i>
    </separator>
   </separator>
   <separator name="electronic dipolcorrection" >
    <i type="logical" name="LDIPOL"> F  </i>
    <i type="logical" name="LMONO"> F  </i>
    <i type="int" name="IDIPOL">     0</i>
    <i name="EPSILON">      1.00000000</i>
    <v name="DIPOL">   -100.00000000   -100.00000000   -100.00000000</v>
    <i name="EFIELD">      0.00000000</i>
   </separator>
  </separator>
  <separator name="grids" >
   <i type="int" name="NGX">   112</i>
   <i type="int" name="NGY">   112</i>
   <i type="int" name="NGZ">   224</i>
   <i type="int" name="NGXF">   224</i>
   <i type="int" name="NGYF">   224</i>
   <i type="int" name="NGZF">   448</i>
   <i type="logical" name="ADDGRID"> T  </i>
  </separator>
  <separator name="ionic" >
   <i type="int" name="NSW">     1</i>
   <i type="int" name="IBRION">    -1</i>
   <i type="int" name="MDALGO">     0</i>
   <i type="int" name="ISIF">     2</i>
   <i name="PSTRESS">      0.00000000</i>
   <i name="EDIFFG">     -0.01000000</i>
   <i type="int" name="NFREE">     0</i>
   <i name="POTIM">      1.00000000</i>
   <i name="SMASS">     -3.00000000</i>
   <i name="SCALEE">      1.00000000</i>
  </separator>
  <separator name="ionic md" >
   <i name="TEBEG">      0.00010000</i>
   <i name="TEEND">      0.00010000</i>
   <i type="int" name="NBLOCK">     1</i>
   <i type="int" name="KBLOCK">     1</i>
   <i type="int" name="NPACO">   256</i>
   <i name="APACO">     16.00000000</i>
  </separator>
  <separator name="symmetry" >
   <i type="int" name="ISYM">     2</i>
   <i name="SYMPREC">      0.00001000</i>
  </separator>
  <separator name="dos" >
   <i type="int" name="LORBIT">     0</i>
   <v name="RWIGS">     -1.00000000     -1.00000000     -1.00000000</v>
   <i type="int" name="NEDOS">   301</i>
   <i name="EMIN">     10.00000000</i>
   <i name="EMAX">    -10.00000000</i>
   <i name="EFERMI">      0.00000000</i>
  </separator>
  <separator name="writing" >
   <i type="int" name="NWRITE">     2</i>
   <i type="logical" name="LWAVE"> F  </i>
   <i type="logical" name="LDOWNSAMPLE"> F  </i>
   <i type="logical" name="LCHARG"> F  </i>
   <i type="logical" name="LPARD"> F  </i>
   <i type="logical" name="LVTOT"> F  </i>
   <i type="logical" name="LVHAR"> F  </i>
   <i type="logical" name="LELF"> F  </i>
   <i type="logical" name="LOPTICS"> F  </i>
   <v name="STM">      0.00000000      0.00000000      0.00000000      0.00000000      0.00000000      0.00000000      0.00000000</v>
  </separator>
  <separator name="performance" >
   <i type="int" name="NPAR">     4</i>
   <i type="int" name="NSIM">     4</i>
   <i type="int" name="NBLK">    -1</i>
   <i type="logical" name="LPLANE"> T  </i>
   <i type="logical" name="LSCALAPACK"> F  </i>
   <i type="logical" name="LSCAAWARE"> F  </i>
   <i type="logical" name="LSCALU"> F  </i>
   <i type="logical" name="LASYNC"> F  </i>
   <i type="logical" name="LORBITALREAL"> F  </i>
  </separator>
  <separator name="miscellaneous" >
   <i type="int" name="IDIOT">     3</i>
   <i type="int" name="ISPECIAL">     0</i>
   <i type="logical" name="LMUSIC"> F  </i>
   <v name="POMASS">     44.95600000     35.45300000     12.01100000</v>
   <v name="DARWINR">      0.00000000      0.00000000      0.00000000</v>
   <v name="DARWINV">      1.00000000      1.00000000      1.00000000</v>
   <i type="logical" name="LCORR"> T  </i>
  </separator>
  <i type="logical" name="GGA_COMPAT"> T  </i>
  <i type="logical" name="LBERRY"> F  </i>
  <i type="int" name="ICORELEVEL">     0</i>
  <i type="logical" name="LDAU"> F  </i>
  <i type="int" name="I_CONSTRAINED_M">     0</i>
  <separator name="electronic exchange-correlation" >
   <i type="string" name="GGA">--</i>
   <i type="int" name="VOSKOWN">     0</i>
   <i type="logical" name="LHFCALC"> F  </i>
   <i type="string" name="PRECFOCK"></i>
   <i type="logical" name="LSYMGRAD"> F  </i>
   <i type="logical" name="LHFONE"> F  </i>
   <i type="logical" name="LRHFCALC"> F  </i>
   <i type="logical" name="LTHOMAS"> F  </i>
   <i type="logical" name="LMODELHF"> F  </i>
   <i name="ENCUT4O">     -1.00000000</i>
   <i type="int" name="EXXOEP">     0</i>
   <i type="int" name="FOURORBIT">     0</i>
   <i name="AEXX">      0.00000000</i>
   <i name="HFALPHA">      0.00000000</i>
   <i name="MCALPHA">      0.00000000</i>
   <i name="ALDAX">      1.00000000</i>
   <i name="AGGAX">      1.00000000</i>
   <i name="ALDAC">      1.00000000</i>
   <i name="AGGAC">      1.00000000</i>
   <i type="int" name="NKREDX">     1</i>
   <i type="int" name="NKREDY">     1</i>
   <i type="int" name="NKREDZ">     1</i>
   <i type="logical" name="SHIFTRED"> F  </i>
   <i type="logical" name="ODDONLY"> F  </i>
   <i type="logical" name="EVENONLY"> F  </i>
   <i type="int" name="LMAXFOCK">     0</i>
   <i type="int" name="NMAXFOCKAE">     0</i>
   <i type="logical" name="LFOCKAEDFT"> F  </i>
   <i name="HFSCREEN">      0.00000000</i>
   <i name="HFSCREENC">      0.00000000</i>
   <i type="int" name="NBANDSGWLOW">     0</i>
  </separator>
  <separator name="vdW DFT" >
   <i type="logical" name="LUSE_VDW"> F  </i>
   <i name="Zab_VDW">     -0.84910000</i>
   <i name="PARAM1">      0.12340000</i>
   <i name="PARAM2">      1.00000000</i>
   <i name="PARAM3">      0.00000000</i>
  </separator>
  <separator name="model GW" >
   <i type="int" name="MODEL_GW">     0</i>
   <i name="MODEL_EPS0">     34.36971577</i>
   <i name="MODEL_ALPHA">      1.00000000</i>
  </separator>
  <separator name="linear response parameters" >
   <i type="logical" name="LEPSILON"> F  </i>
   <i type="logical" name="LRPA"> F  </i>
   <i type="logical" name="LNABLA"> F  </i>
   <i type="logical" name="LVEL"> F  </i>
   <i type="int" name="KINTER">     0</i>
   <i name="CSHIFT">      0.10000000</i>
   <i name="OMEGAMAX">     -1.00000000</i>
   <i name="DEG_THRESHOLD">      0.00200000</i>
   <i name="RTIME">     -0.10000000</i>
   <i name="WPLASMAI">      0.00000000</i>
   <v name="DFIELD">      0.00000000      0.00000000      0.00000000</v>
   <v name="WPLASMA">      0.00000000      0.00000000      0.00000000      0.00000000      0.00000000      0.00000000      0.00000000      0.00000000      0.00000000</v>
  </separator>
  <separator name="orbital magnetization" >
   <i type="logical" name="NUCIND"> F  </i>
   <v name="MAGPOS">      0.00000000      0.00000000      0.00000000</v>
   <i type="logical" name="LNICSALL"> T  </i>
   <i type="logical" name="ORBITALMAG"> F  </i>
   <i type="logical" name="LMAGBLOCH"> F  </i>
   <i type="logical" name="LCHIMAG"> F  </i>
   <i type="logical" name="LGAUGE"> T  </i>
   <i type="int" name="MAGATOM">     0</i>
   <v name="MAGDIPOL">      0.00000000      0.00000000      0.00000000</v>
   <v name="AVECCONST">      0.00000000      0.00000000      0.00000000</v>
  </separator>
  <separator name="response functions" >
   <i type="logical" name="LADDER"> F  </i>
   <i type="logical" name="LRPAFORCE"> F  </i>
   <i type="logical" name="LFXC"> F  </i>
   <i type="logical" name="LHARTREE"> T  </i>
   <i type="int" name="IBSE">     0</i>
   <v type="int" name="KPOINT">    -1     0     0     0</v>
   <i type="logical" name="LTCTE"> F  </i>
   <i type="logical" name="LTETE"> F  </i>
   <i type="logical" name="LTRIPLET"> F  </i>
   <i type="logical" name="LFXCEPS"> F  </i>
   <i type="logical" name="LFXHEG"> F  </i>
   <i type="int" name="NATURALO">     2</i>
   <i type="logical" name="L2ORDER"> F  </i>
   <i type="logical" name="LMP2LT"> F  </i>
   <i type="logical" name="LUSEW"> F  </i>
   <i name="ENCUTGW">     -2.00000000</i>
   <i name="ENCUTGWSOFT">     -2.00000000</i>
   <i name="ENCUTLF">     -1.00000000</i>
   <i type="int" name="LMAXMP2">    -1</i>
   <i name="SCISSOR">      0.00000000</i>
   <i type="int" name="NOMEGA">     0</i>
   <i type="int" name="NOMEGAR">     0</i>
   <i type="int" name="NBANDSGW">    -1</i>
   <i type="int" name="NBANDSO">    -1</i>
   <i type="int" name="NBANDSV">    -1</i>
   <i type="int" name="NELM">     1</i>
   <i type="int" name="NELMHF">     1</i>
   <i type="int" name="DIM">     3</i>
   <i type="int" name="ANTIRES">     0</i>
   <i name="OMEGAMAX">    -30.00000000</i>
   <i name="OMEGAMIN">    -30.00000000</i>
   <i name="OMEGATL">   -200.00000000</i>
   <i type="int" name="OMEGAGRID">   140</i>
   <i name="CSHIFT">     -0.10000000</i>
   <i type="logical" name="SELFENERGY"> F  </i>
   <i type="logical" name="LSPECTRAL"> F  </i>
   <i type="logical" name="LSPECTRALGW"> F  </i>
   <i type="logical" name="LSINGLES"> F  </i>
   <i type="logical" name="LFERMIGW"> F  </i>
   <i type="logical" name="ODDONLYGW"> F  </i>
   <i type="logical" name="EVENONLYGW"> F  </i>
   <i type="int" name="NKREDLFX">     1</i>
   <i type="int" name="NKREDLFY">     1</i>
   <i type="int" name="NKREDLFZ">     1</i>
   <i type="int" name="MAXMEM">  2800</i>
   <i type="int" name="TELESCOPE">     0</i>
   <i type="int" name="TAUPAR">     1</i>
   <i type="int" name="OMEGAPAR">    -1</i>
   <i name="LAMBDA">      1.00000000</i>
  </separator>
  <separator name="External order field" >
   <i name="OFIELD_KAPPA">      0.00000000</i>
   <v name="OFIELD_K">      0.00000000      0.00000000      0.00000000</v>
   <i name="OFIELD_Q6_NEAR">      0.00000000</i>
   <i name="OFIELD_Q6_FAR">      0.00000000</i>
   <i name="OFIELD_A">      0.00000000</i>
  </separator>
 </parameters>
 <atominfo>
  <atoms>      80 </atoms>
  <types>       3 </types>
  <array name="atoms" >
   <dimension dim="1">ion</dimension>
   <field type="string">element</field>
   <field type="int">atomtype</field>
   <set>
    <rc><c>Sc</c><c>   1</c></rc>
    <rc><c>Sc</c><c>   1</c></rc>
    <rc><c>Sc</c><c>   1</c></rc>
    <rc><c>Sc</c><c>   1</c></rc>
    <rc><c>Sc</c><c>   1</c></rc>
    <rc><c>Sc</c><c>   1</c></rc>
    <rc><c>Sc</c><c>   1</c></rc>
    <rc><c>Sc</c><c>   1</c></rc>
    <rc><c>Sc</c><c>   1</c></rc>
    <rc><c>Sc</c><c>   1</c></rc>
    <rc><c>Sc</c><c>   1</c></rc>
    <rc><c>Sc</c><c>   1</c></rc>
    <rc><c>Sc</c><c>   1</c></rc>
    <rc><c>Sc</c><c>   1</c></rc>
    <rc><c>Sc</c><c>   1</c></rc>
    <rc><c>Sc</c><c>   1</c></rc>
    <rc><c>Sc</c><c>   1</c></rc>
    <rc><c>Sc</c><c>   1</c></rc>
    <rc><c>Sc</c><c>   1</c></rc>
    <rc><c>Sc</c><c>   1</c></rc>
    <rc><c>Sc</c><c>   1</c></rc>
    <rc><c>Sc</c><c>   1</c></rc>
    <rc><c>Sc</c><c>   1</c></rc>
    <rc><c>Sc</c><c>   1</c></rc>
    <rc><c>Sc</c><c>   1</c></rc>
    <rc><c>Sc</c><c>   1</c></rc>
    <rc><c>Sc</c><c>   1</c></rc>
    <rc><c>Sc</c><c>   1</c></rc>
    <rc><c>Sc</c><c>   1</c></rc>
    <rc><c>Sc</c><c>   1</c></rc>
    <rc><c>Sc</c><c>   1</c></rc>
    <rc><c>Sc</c><c>   1</c></rc>
    <rc><c>Cl</c><c>   2</c></rc>
    <rc><c>Cl</c><c>   2</c></rc>
    <rc><c>Cl</c><c>   2</c></rc>
    <rc><c>Cl</c><c>   2</c></rc>
    <rc><c>Cl</c><c>   2</c></rc>
    <rc><c>Cl</c><c>   2</c></rc>
    <rc><c>Cl</c><c>   2</c></rc>
    <rc><c>Cl</c><c>   2</c></rc>
    <rc><c>Cl</c><c>   2</c></rc>
    <rc><c>Cl</c><c>   2</c></rc>
    <rc><c>Cl</c><c>   2</c></rc>
    <rc><c>Cl</c><c>   2</c></rc>
    <rc><c>Cl</c><c>   2</c></rc>
    <rc><c>Cl</c><c>   2</c></rc>
    <rc><c>Cl</c><c>   2</c></rc>
    <rc><c>Cl</c><c>   2</c></rc>
    <rc><c>Cl</c><c>   2</c></rc>
    <rc><c>Cl</c><c>   2</c></rc>
    <rc><c>Cl</c><c>   2</c></rc>
    <rc><c>Cl</c><c>   2</c></rc>
    <rc><c>Cl</c><c>   2</c></rc>
    <rc><c>Cl</c><c>   2</c></rc>
    <rc><c>Cl</c><c>   2</c></rc>
    <rc><c>Cl</c><c>   2</c></rc>
    <rc><c>Cl</c><c>   2</c></rc>
    <rc><c>Cl</c><c>   2</c></rc>
    <rc><c>Cl</c><c>   2</c></rc>
    <rc><c>Cl</c><c>   2</c></rc>
    <rc><c>Cl</c><c>   2</c></rc>
    <rc><c>Cl</c><c>   2</c></rc>
    <rc><c>Cl</c><c>   2</c></rc>
    <rc><c>Cl</c><c>   2</c></rc>
    <rc><c>C </c><c>   3</c></rc>
    <rc><c>C </c><c>   3</c></rc>
    <rc><c>C </c><c>   3</c></rc>
    <rc><c>C </c><c>   3</c></rc>
    <rc><c>C </c><c>   3</c></rc>
    <rc><c>C </c><c>   3</c></rc>
    <rc><c>C </c><c>   3</c></rc>
    <rc><c>C </c><c>   3</c></rc>
    <rc><c>C </c><c>   3</c></rc>
    <rc><c>C </c><c>   3</c></rc>
    <rc><c>C </c><c>   3</c></rc>
    <rc><c>C </c><c>   3</c></rc>
    <rc><c>C </c><c>   3</c></rc>
    <rc><c>C </c><c>   3</c></rc>
    <rc><c>C </c><c>   3</c></rc>
    <rc><c>C </c><c>   3</c></rc>
   </set>
  </array>
  <array name="atomtypes" >
   <dimension dim="1">type</dimension>
   <field type="int">atomspertype</field>
   <field type="string">element</field>
   <field>mass</field>
   <field>valence</field>
   <field type="string">pseudopotential</field>
   <set>
    <rc><c>  32</c><c>Sc</c><c>     44.95600000</c><c>     11.00000000</c><c>  PAW_PBE Sc_sv 07Sep2000               </c></rc>
    <rc><c>  32</c><c>Cl</c><c>     35.45300000</c><c>      7.00000000</c><c>  PAW_PBE Cl 06Sep2000                  </c></rc>
    <rc><c>  16</c><c>C </c><c>     12.01100000</c><c>      4.00000000</c><c>  PAW_PBE C 08Apr2002                   </c></rc>
   </set>
  </array>
 </atominfo>
 <structure name="initialpos" >
  <crystal>
   <varray name="basis" >
    <v>      13.79398668       0.00000000       0.00000000 </v>
    <v>      -6.89699334      11.94594288       0.00000000 </v>
    <v>       0.00000000       0.00000000      27.81022107 </v>
   </varray>
   <i name="volume">   4582.62876984 </i>
   <varray name="rec_basis" >
    <v>       0.07249536       0.04185521       0.00000000 </v>
    <v>       0.00000000       0.08371043       0.00000000 </v>
    <v>       0.00000000       0.00000000       0.03595800 </v>
   </varray>
  </crystal>
  <varray name="positions" >
   <v>       0.07040591       0.16044642       0.54210716 </v>
   <v>       0.07413141       0.41093903       0.54247695 </v>
   <v>       0.07756479       0.65770180       0.54725167 </v>
   <v>       0.09352651       0.91575917       0.54600623 </v>
   <v>       0.34639554       0.17169874       0.54292292 </v>
   <v>       0.34063128       0.41727474       0.54579206 </v>
   <v>       0.32558467       0.65364058       0.54537878 </v>
   <v>       0.32917654       0.90729057       0.54424090 </v>
   <v>       0.58444359       0.16094324       0.54481070 </v>
   <v>       0.59313102       0.41618508       0.54270686 </v>
   <v>       0.58512898       0.67182021       0.54300666 </v>
   <v>       0.58066835       0.90883386       0.54065705 </v>
   <v>       0.82451215       0.16725950       0.54552390 </v>
   <v>       0.83395644       0.42076177       0.54717525 </v>
   <v>       0.83772834       0.67303321       0.54717863 </v>
   <v>       0.82511567       0.91427124       0.54230510 </v>
   <v>       0.17287066       0.08577639       0.45907264 </v>
   <v>       0.16036041       0.32329469       0.45545706 </v>
   <v>       0.16929759       0.58280970       0.45782107 </v>
   <v>       0.16041037       0.82595318       0.45572714 </v>
   <v>       0.42269043       0.08513936       0.45667846 </v>
   <v>       0.41907076       0.33946221       0.45700618 </v>
   <v>       0.42486212       0.58314270       0.45732478 </v>
   <v>       0.41024351       0.82795695       0.45522869 </v>
   <v>       0.66145212       0.08725373       0.45299497 </v>
   <v>       0.67028658       0.33896114       0.45401299 </v>
   <v>       0.66714704       0.58489311       0.45444038 </v>
   <v>       0.67058573       0.83520841       0.45239604 </v>
   <v>       0.91404507       0.08750033       0.45344368 </v>
   <v>       0.90826982       0.32734263       0.45607252 </v>
   <v>       0.91451903       0.57867023       0.45775432 </v>
   <v>       0.92233641       0.82648567       0.45639597 </v>
   <v>       0.08498853       0.17533447       0.38940454 </v>
   <v>       0.08937698       0.41897080       0.39263265 </v>
   <v>       0.09265945       0.66364234       0.39478186 </v>
   <v>       0.08769358       0.92323299       0.39750332 </v>
   <v>       0.33594063       0.16918130       0.39921830 </v>
   <v>       0.33134074       0.40872330       0.39559098 </v>
   <v>       0.33934403       0.67350344       0.39621206 </v>
   <v>       0.32566676       0.92479135       0.39360947 </v>
   <v>       0.58240863       0.17545638       0.39352065 </v>
   <v>       0.59535676       0.42471139       0.39468129 </v>
   <v>       0.58465801       0.67268569       0.39295107 </v>
   <v>       0.59228263       0.91209135       0.39408642 </v>
   <v>       0.82372737       0.16442283       0.39400307 </v>
   <v>       0.83429375       0.41661613       0.39413113 </v>
   <v>       0.83948822       0.66822803       0.39096436 </v>
   <v>       0.83251305       0.91390525       0.39737054 </v>
   <v>       0.15767378       0.09364848       0.60218701 </v>
   <v>       0.16354902       0.33769617       0.60551133 </v>
   <v>       0.15934480       0.57323562       0.61125620 </v>
   <v>       0.16612645       0.82890846       0.60808710 </v>
   <v>       0.42248782       0.08935367       0.60167331 </v>
   <v>       0.43124152       0.34267326       0.60576942 </v>
   <v>       0.40221108       0.58074752       0.60873692 </v>
   <v>       0.41382615       0.83357364       0.60254196 </v>
   <v>       0.64680764       0.06850868       0.60463444 </v>
   <v>       0.67093563       0.32838550       0.60919091 </v>
   <v>       0.66107772       0.58529755       0.60492134 </v>
   <v>       0.67217023       0.83851725       0.60181720 </v>
   <v>       0.92572251       0.09990934       0.60416515 </v>
   <v>       0.91468499       0.34287386       0.60766752 </v>
   <v>       0.91384311       0.57695063       0.60625242 </v>
   <v>       0.90907132       0.83301071       0.60546024 </v>
   <v>       0.99725779       0.99773330       0.50091901 </v>
   <v>       0.99712923       0.25598430       0.49978869 </v>
   <v>       0.99065626       0.49246820       0.50273833 </v>
   <v>       0.00183710       0.74654389       0.50083526 </v>
   <v>       0.25600412       0.99774032       0.50432220 </v>
   <v>       0.26308564       0.26036370       0.49737457 </v>
   <v>       0.24658875       0.50107010       0.49757145 </v>
   <v>       0.25091014       0.74365360       0.49917463 </v>
   <v>       0.49688316       0.99576631       0.49496139 </v>
   <v>       0.50670196       0.26367625       0.49771986 </v>
   <v>       0.50749169       0.50296013       0.50146002 </v>
   <v>       0.49801276       0.74657780       0.49725699 </v>
   <v>       0.74983141       0.00906325       0.49838207 </v>
   <v>       0.75072147       0.24639173       0.49994168 </v>
   <v>       0.76193866       0.50710669       0.50230072 </v>
   <v>       0.75290695       0.75510913       0.49855729 </v>
  </varray>
  <varray name="velocities" >
   <v>       0.00000000       0.00000000       0.00000000 </v>
   <v>       0.00000000       0.00000000       0.00000000 </v>
   <v>       0.00000000       0.00000000       0.00000000 </v>
   <v>       0.00000000       0.00000000       0.00000000 </v>
   <v>       0.00000000       0.00000000       0.00000000 </v>
   <v>       0.00000000       0.00000000       0.00000000 </v>
   <v>       0.00000000       0.00000000       0.00000000 </v>
   <v>       0.00000000       0.00000000       0.00000000 </v>
   <v>       0.00000000       0.00000000       0.00000000 </v>
   <v>       0.00000000       0.00000000       0.00000000 </v>
   <v>       0.00000000       0.00000000       0.00000000 </v>
   <v>       0.00000000       0.00000000       0.00000000 </v>
   <v>       0.00000000       0.00000000       0.00000000 </v>
   <v>       0.00000000       0.00000000       0.00000000 </v>
   <v>       0.00000000       0.00000000       0.00000000 </v>
   <v>       0.00000000       0.00000000       0.00000000 </v>
   <v>       0.00000000       0.00000000       0.00000000 </v>
   <v>       0.00000000       0.00000000       0.00000000 </v>
   <v>       0.00000000       0.00000000       0.00000000 </v>
   <v>       0.00000000       0.00000000       0.00000000 </v>
   <v>       0.00000000       0.00000000       0.00000000 </v>
   <v>       0.00000000       0.00000000       0.00000000 </v>
   <v>       0.00000000       0.00000000       0.00000000 </v>
   <v>       0.00000000       0.00000000       0.00000000 </v>
   <v>       0.00000000       0.00000000       0.00000000 </v>
   <v>       0.00000000       0.00000000       0.00000000 </v>
   <v>       0.00000000       0.00000000       0.00000000 </v>
   <v>       0.00000000       0.00000000       0.00000000 </v>
   <v>       0.00000000       0.00000000       0.00000000 </v>
   <v>       0.00000000       0.00000000       0.00000000 </v>
   <v>       0.00000000       0.00000000       0.00000000 </v>
   <v>       0.00000000       0.00000000       0.00000000 </v>
   <v>       0.00000000       0.00000000       0.00000000 </v>
   <v>       0.00000000       0.00000000       0.00000000 </v>
   <v>       0.00000000       0.00000000       0.00000000 </v>
   <v>       0.00000000       0.00000000       0.00000000 </v>
   <v>       0.00000000       0.00000000       0.00000000 </v>
   <v>       0.00000000       0.00000000       0.00000000 </v>
   <v>       0.00000000       0.00000000       0.00000000 </v>
   <v>       0.00000000       0.00000000       0.00000000 </v>
   <v>       0.00000000       0.00000000       0.00000000 </v>
   <v>       0.00000000       0.00000000       0.00000000 </v>
   <v>       0.00000000       0.00000000       0.00000000 </v>
   <v>       0.00000000       0.00000000       0.00000000 </v>
   <v>       0.00000000       0.00000000       0.00000000 </v>
   <v>       0.00000000       0.00000000       0.00000000 </v>
   <v>       0.00000000       0.00000000       0.00000000 </v>
   <v>       0.00000000       0.00000000       0.00000000 </v>
   <v>       0.00000000       0.00000000       0.00000000 </v>
   <v>       0.00000000       0.00000000       0.00000000 </v>
   <v>       0.00000000       0.00000000       0.00000000 </v>
   <v>       0.00000000       0.00000000       0.00000000 </v>
   <v>       0.00000000       0.00000000       0.00000000 </v>
   <v>       0.00000000       0.00000000       0.00000000 </v>
   <v>       0.00000000       0.00000000       0.00000000 </v>
   <v>       0.00000000       0.00000000       0.00000000 </v>
   <v>       0.00000000       0.00000000       0.00000000 </v>
   <v>       0.00000000       0.00000000       0.00000000 </v>
   <v>       0.00000000       0.00000000       0.00000000 </v>
   <v>       0.00000000       0.00000000       0.00000000 </v>
   <v>       0.00000000       0.00000000       0.00000000 </v>
   <v>       0.00000000       0.00000000       0.00000000 </v>
   <v>       0.00000000       0.00000000       0.00000000 </v>
   <v>       0.00000000       0.00000000       0.00000000 </v>
   <v>       0.00000000       0.00000000       0.00000000 </v>
   <v>       0.00000000       0.00000000       0.00000000 </v>
   <v>       0.00000000       0.00000000       0.00000000 </v>
   <v>       0.00000000       0.00000000       0.00000000 </v>
   <v>       0.00000000       0.00000000       0.00000000 </v>
   <v>       0.00000000       0.00000000       0.00000000 </v>
   <v>       0.00000000       0.00000000       0.00000000 </v>
   <v>       0.00000000       0.00000000       0.00000000 </v>
   <v>       0.00000000       0.00000000       0.00000000 </v>
   <v>       0.00000000       0.00000000       0.00000000 </v>
   <v>       0.00000000       0.00000000       0.00000000 </v>
   <v>       0.00000000       0.00000000       0.00000000 </v>
   <v>       0.00000000       0.00000000       0.00000000 </v>
   <v>       0.00000000       0.00000000       0.00000000 </v>
   <v>       0.00000000       0.00000000       0.00000000 </v>
   <v>       0.00000000       0.00000000       0.00000000 </v>
  </varray>
 </structure>
 <calculation>
  <scstep>
   <time name="dav">  141.92  141.93</time>
   <time name="total">  144.29  144.31</time>
   <energy>
    <i name="alphaZ">    784.57699423 </i>
    <i name="ewald"> 252336.16430864 </i>
    <i name="hartreedc">-299997.58013063 </i>
    <i name="XCdc">   2502.45735453 </i>
    <i name="pawpsdc">  43679.68029659 </i>
    <i name="pawaedc"> -43417.33247688 </i>
    <i name="eentropy">     -0.08209434 </i>
    <i name="bandstr">     84.13412172 </i>
    <i name="atom">  56210.72393729 </i>
    <i name="e_fr_energy">  12182.74231114 </i>
    <i name="e_wo_entrp">  12182.82440548 </i>
    <i name="e_0_energy">  12182.78335831 </i>
   </energy>
  </scstep>
  <scstep>
   <time name="dav">  153.03  153.04</time>
   <time name="total">  153.03  153.04</time>
   <energy>
    <i name="e_fr_energy">   1713.13528172 </i>
    <i name="e_wo_entrp">   1713.16957195 </i>
    <i name="e_0_energy">   1713.15242684 </i>
   </energy>
  </scstep>
  <scstep>
   <time name="dav">  190.74  190.75</time>
   <time name="total">  190.74  190.75</time>
   <energy>
    <i name="e_fr_energy">   -411.22337259 </i>
    <i name="e_wo_entrp">   -411.22337089 </i>
    <i name="e_0_energy">   -411.22337174 </i>
   </energy>
  </scstep>
  <scstep>
   <time name="dav">  173.57  173.58</time>
   <time name="total">  173.57  173.58</time>
   <energy>
    <i name="e_fr_energy">   -644.89651167 </i>
    <i name="e_wo_entrp">   -644.89651167 </i>
    <i name="e_0_energy">   -644.89651167 </i>
   </energy>
  </scstep>
  <scstep>
   <time name="dav">  173.56  173.57</time>
   <time name="total">  185.41  185.42</time>
   <energy>
    <i name="e_fr_energy">   -655.19477645 </i>
    <i name="e_wo_entrp">   -655.19477645 </i>
    <i name="e_0_energy">   -655.19477645 </i>
   </energy>
  </scstep>
  <scstep>
   <time name="dav">  168.15  168.15</time>
   <time name="total">  182.30  182.31</time>
   <energy>
    <i name="e_fr_energy">   -525.25749387 </i>
    <i name="e_wo_entrp">   -525.25749387 </i>
    <i name="e_0_energy">   -525.25749387 </i>
   </energy>
  </scstep>
  <scstep>
   <time name="dav">  169.65  169.67</time>
   <time name="total">  183.81  183.84</time>
   <energy>
    <i name="e_fr_energy">   -529.51739742 </i>
    <i name="e_wo_entrp">   -529.51739742 </i>
    <i name="e_0_energy">   -529.51739742 </i>
   </energy>
  </scstep>
  <scstep>
   <time name="dav">  169.17  169.18</time>
   <time name="total">  183.32  183.33</time>
   <energy>
    <i name="e_fr_energy">   -527.42084083 </i>
    <i name="e_wo_entrp">   -527.42084083 </i>
    <i name="e_0_energy">   -527.42084083 </i>
   </energy>
  </scstep>
  <scstep>
   <time name="dav">  156.40  156.41</time>
   <time name="total">  170.54  170.56</time>
   <energy>
    <i name="e_fr_energy">   -526.92553621 </i>
    <i name="e_wo_entrp">   -526.92553621 </i>
    <i name="e_0_energy">   -526.92553621 </i>
   </energy>
  </scstep>
  <scstep>
   <time name="dav">  166.72  166.73</time>
   <time name="total">  180.87  180.88</time>
   <energy>
    <i name="e_fr_energy">   -526.81651376 </i>
    <i name="e_wo_entrp">   -526.81651376 </i>
    <i name="e_0_energy">   -526.81651376 </i>
   </energy>
  </scstep>
  <scstep>
   <time name="dav">  162.39  162.39</time>
   <time name="total">  176.51  176.52</time>
   <energy>
    <i name="e_fr_energy">   -526.79652968 </i>
    <i name="e_wo_entrp">   -526.79652968 </i>
    <i name="e_0_energy">   -526.79652968 </i>
   </energy>
  </scstep>
  <scstep>
   <time name="dav">  172.75  172.76</time>
   <time name="total">  186.85  186.87</time>
   <energy>
    <i name="e_fr_energy">   -526.78422203 </i>
    <i name="e_wo_entrp">   -526.78422203 </i>
    <i name="e_0_energy">   -526.78422203 </i>
   </energy>
  </scstep>
  <scstep>
   <time name="dav">  157.02  157.03</time>
   <time name="total">  171.13  171.14</time>
   <energy>
    <i name="e_fr_energy">   -526.78257956 </i>
    <i name="e_wo_entrp">   -526.78257956 </i>
    <i name="e_0_energy">   -526.78257956 </i>
   </energy>
  </scstep>
  <scstep>
   <time name="dav">  148.14  148.14</time>
   <time name="total">  162.08  162.10</time>
   <energy>
    <i name="e_fr_energy">   -526.78077443 </i>
    <i name="e_wo_entrp">   -526.78077443 </i>
    <i name="e_0_energy">   -526.78077443 </i>
   </energy>
  </scstep>
  <scstep>
   <time name="dav">  163.07  163.07</time>
   <time name="total">  177.15  177.17</time>
   <energy>
    <i name="e_fr_energy">   -526.78237568 </i>
    <i name="e_wo_entrp">   -526.78237568 </i>
    <i name="e_0_energy">   -526.78237568 </i>
   </energy>
  </scstep>
  <scstep>
   <time name="dav">  164.40  164.41</time>
   <time name="total">  178.69  178.70</time>
   <energy>
    <i name="e_fr_energy">   -526.78498944 </i>
    <i name="e_wo_entrp">   -526.78498944 </i>
    <i name="e_0_energy">   -526.78498944 </i>
   </energy>
  </scstep>
  <scstep>
   <time name="dav">  148.73  148.73</time>
   <time name="total">  163.12  163.13</time>
   <energy>
    <i name="e_fr_energy">   -526.78827918 </i>
    <i name="e_wo_entrp">   -526.78827918 </i>
    <i name="e_0_energy">   -526.78827918 </i>
   </energy>
  </scstep>
  <scstep>
   <time name="dav">  146.80  146.80</time>
   <time name="total">  161.14  161.15</time>
   <energy>
    <i name="e_fr_energy">   -526.79007521 </i>
    <i name="e_wo_entrp">   -526.79007521 </i>
    <i name="e_0_energy">   -526.79007521 </i>
   </energy>
  </scstep>
  <scstep>
   <time name="dav">  152.43  152.44</time>
   <time name="total">  166.86  166.88</time>
   <energy>
    <i name="e_fr_energy">   -526.79122561 </i>
    <i name="e_wo_entrp">   -526.79122561 </i>
    <i name="e_0_energy">   -526.79122561 </i>
   </energy>
  </scstep>
  <scstep>
   <time name="dav">  144.05  144.06</time>
   <time name="total">  158.46  158.47</time>
   <energy>
    <i name="e_fr_energy">   -526.79213430 </i>
    <i name="e_wo_entrp">   -526.79213430 </i>
    <i name="e_0_energy">   -526.79213430 </i>
   </energy>
  </scstep>
  <scstep>
   <time name="dav">  126.85  126.86</time>
   <time name="total">  141.17  141.18</time>
   <energy>
    <i name="e_fr_energy">   -526.79258468 </i>
    <i name="e_wo_entrp">   -526.79258468 </i>
    <i name="e_0_energy">   -526.79258468 </i>
   </energy>
  </scstep>
  <scstep>
   <time name="dav">  118.52  118.52</time>
   <time name="total">  132.78  132.80</time>
   <energy>
    <i name="e_fr_energy">   -526.79313636 </i>
    <i name="e_wo_entrp">   -526.79313636 </i>
    <i name="e_0_energy">   -526.79313636 </i>
   </energy>
  </scstep>
  <scstep>
   <time name="dav">  110.56  110.57</time>
   <time name="total">  124.60  124.61</time>
   <energy>
    <i name="e_fr_energy">   -526.79355688 </i>
    <i name="e_wo_entrp">   -526.79355688 </i>
    <i name="e_0_energy">   -526.79355688 </i>
   </energy>
  </scstep>
  <scstep>
   <time name="dav">  113.42  113.42</time>
   <time name="total">  127.82  127.83</time>
   <energy>
    <i name="e_fr_energy">   -526.79372376 </i>
    <i name="e_wo_entrp">   -526.79372376 </i>
    <i name="e_0_energy">   -526.79372376 </i>
   </energy>
  </scstep>
  <scstep>
   <time name="dav">  103.78  103.79</time>
   <time name="total">  118.05  118.06</time>
   <energy>
    <i name="e_fr_energy">   -526.79382055 </i>
    <i name="e_wo_entrp">   -526.79382055 </i>
    <i name="e_0_energy">   -526.79382055 </i>
   </energy>
  </scstep>
  <scstep>
   <time name="dav">  102.37  102.37</time>
   <time name="total">  116.64  116.65</time>
   <energy>
    <i name="e_fr_energy">   -526.79387547 </i>
    <i name="e_wo_entrp">   -526.79387547 </i>
    <i name="e_0_energy">   -526.79387547 </i>
   </energy>
  </scstep>
  <scstep>
   <time name="dav">   90.31   90.32</time>
   <time name="total">  104.59  104.61</time>
   <energy>
    <i name="e_fr_energy">   -526.79388553 </i>
    <i name="e_wo_entrp">   -526.79388553 </i>
    <i name="e_0_energy">   -526.79388553 </i>
   </energy>
  </scstep>
  <scstep>
   <time name="dav">   89.16   89.16</time>
   <time name="total">  103.43  103.44</time>
   <energy>
    <i name="e_fr_energy">   -526.79389629 </i>
    <i name="e_wo_entrp">   -526.79389629 </i>
    <i name="e_0_energy">   -526.79389629 </i>
   </energy>
  </scstep>
  <scstep>
   <time name="dav">   90.10   90.11</time>
   <time name="total">  104.52  104.53</time>
   <energy>
    <i name="e_fr_energy">   -526.79390791 </i>
    <i name="e_wo_entrp">   -526.79390791 </i>
    <i name="e_0_energy">   -526.79390791 </i>
   </energy>
  </scstep>
  <scstep>
   <time name="dav">   91.22   91.23</time>
   <time name="total">  105.51  105.52</time>
   <energy>
    <i name="e_fr_energy">   -526.79391514 </i>
    <i name="e_wo_entrp">   -526.79391514 </i>
    <i name="e_0_energy">   -526.79391514 </i>
   </energy>
  </scstep>
  <scstep>
   <time name="dav">   86.44   86.44</time>
   <time name="total">  100.33  100.34</time>
   <energy>
    <i name="e_fr_energy">   -526.79391680 </i>
    <i name="e_wo_entrp">   -526.79391680 </i>
    <i name="e_0_energy">   -526.79391680 </i>
   </energy>
  </scstep>
  <scstep>
   <time name="dav">   88.54   88.55</time>
   <time name="total">  102.47  102.48</time>
   <energy>
    <i name="e_fr_energy">   -526.79391828 </i>
    <i name="e_wo_entrp">   -526.79391828 </i>
    <i name="e_0_energy">   -526.79391828 </i>
   </energy>
  </scstep>
  <scstep>
   <time name="dav">   86.47   86.47</time>
   <time name="total">   88.72   88.74</time>
   <energy>
    <i name="alphaZ">    784.57699423 </i>
    <i name="ewald"> 252336.16430864 </i>
    <i name="hartreedc">-300292.64805679 </i>
    <i name="XCdc">   2489.34198054 </i>
    <i name="pawpsdc">  59256.93054120 </i>
    <i name="pawaedc"> -59089.38324102 </i>
    <i name="eentropy">     -0.00000000 </i>
    <i name="bandstr"> -12222.50038317 </i>
    <i name="atom">  56210.72393729 </i>
    <i name="e_fr_energy">   -526.79391908 </i>
    <i name="e_wo_entrp">   -526.79391908 </i>
    <i name="e_0_energy">   -526.79391908 </i>
   </energy>
  </scstep>
  <structure>
   <crystal>
    <varray name="basis" >
     <v>      13.79398668       0.00000000       0.00000000 </v>
     <v>      -6.89699334      11.94594288       0.00000000 </v>
     <v>       0.00000000       0.00000000      27.81022107 </v>
    </varray>
    <i name="volume">   4582.62876984 </i>
    <varray name="rec_basis" >
     <v>       0.07249536       0.04185521       0.00000000 </v>
     <v>       0.00000000       0.08371043       0.00000000 </v>
     <v>       0.00000000       0.00000000       0.03595800 </v>
    </varray>
   </crystal>
   <varray name="positions" >
    <v>       0.07040591       0.16044642       0.54210716 </v>
    <v>       0.07413141       0.41093903       0.54247695 </v>
    <v>       0.07756479       0.65770180       0.54725167 </v>
    <v>       0.09352651       0.91575917       0.54600623 </v>
    <v>       0.34639554       0.17169874       0.54292292 </v>
    <v>       0.34063128       0.41727474       0.54579206 </v>
    <v>       0.32558467       0.65364058       0.54537878 </v>
    <v>       0.32917654       0.90729057       0.54424090 </v>
    <v>       0.58444359       0.16094324       0.54481070 </v>
    <v>       0.59313102       0.41618508       0.54270686 </v>
    <v>       0.58512898       0.67182021       0.54300666 </v>
    <v>       0.58066835       0.90883386       0.54065705 </v>
    <v>       0.82451215       0.16725950       0.54552390 </v>
    <v>       0.83395644       0.42076177       0.54717525 </v>
    <v>       0.83772834       0.67303321       0.54717863 </v>
    <v>       0.82511567       0.91427124       0.54230510 </v>
    <v>       0.17287066       0.08577639       0.45907264 </v>
    <v>       0.16036041       0.32329469       0.45545706 </v>
    <v>       0.16929759       0.58280970       0.45782107 </v>
    <v>       0.16041037       0.82595318       0.45572714 </v>
    <v>       0.42269043       0.08513936       0.45667846 </v>
    <v>       0.41907076       0.33946221       0.45700618 </v>
    <v>       0.42486212       0.58314270       0.45732478 </v>
    <v>       0.41024351       0.82795695       0.45522869 </v>
    <v>       0.66145212       0.08725373       0.45299497 </v>
    <v>       0.67028658       0.33896114       0.45401299 </v>
    <v>       0.66714704       0.58489311       0.45444038 </v>
    <v>       0.67058573       0.83520841       0.45239604 </v>
    <v>       0.91404507       0.08750033       0.45344368 </v>
    <v>       0.90826982       0.32734263       0.45607252 </v>
    <v>       0.91451903       0.57867023       0.45775432 </v>
    <v>       0.92233641       0.82648567       0.45639597 </v>
    <v>       0.08498853       0.17533447       0.38940454 </v>
    <v>       0.08937698       0.41897080       0.39263265 </v>
    <v>       0.09265945       0.66364234       0.39478186 </v>
    <v>       0.08769358       0.92323299       0.39750332 </v>
    <v>       0.33594063       0.16918130       0.39921830 </v>
    <v>       0.33134074       0.40872330       0.39559098 </v>
    <v>       0.33934403       0.67350344       0.39621206 </v>
    <v>       0.32566676       0.92479135       0.39360947 </v>
    <v>       0.58240863       0.17545638       0.39352065 </v>
    <v>       0.59535676       0.42471139       0.39468129 </v>
    <v>       0.58465801       0.67268569       0.39295107 </v>
    <v>       0.59228263       0.91209135       0.39408642 </v>
    <v>       0.82372737       0.16442283       0.39400307 </v>
    <v>       0.83429375       0.41661613       0.39413113 </v>
    <v>       0.83948822       0.66822803       0.39096436 </v>
    <v>       0.83251305       0.91390525       0.39737054 </v>
    <v>       0.15767378       0.09364848       0.60218701 </v>
    <v>       0.16354902       0.33769617       0.60551133 </v>
    <v>       0.15934480       0.57323562       0.61125620 </v>
    <v>       0.16612645       0.82890846       0.60808710 </v>
    <v>       0.42248782       0.08935367       0.60167331 </v>
    <v>       0.43124152       0.34267326       0.60576942 </v>
    <v>       0.40221108       0.58074752       0.60873692 </v>
    <v>       0.41382615       0.83357364       0.60254196 </v>
    <v>       0.64680764       0.06850868       0.60463444 </v>
    <v>       0.67093563       0.32838550       0.60919091 </v>
    <v>       0.66107772       0.58529755       0.60492134 </v>
    <v>       0.67217023       0.83851725       0.60181720 </v>
    <v>       0.92572251       0.09990934       0.60416515 </v>
    <v>       0.91468499       0.34287386       0.60766752 </v>
    <v>       0.91384311       0.57695063       0.60625242 </v>
    <v>       0.90907132       0.83301071       0.60546024 </v>
    <v>       0.99725779       0.99773330       0.50091901 </v>
    <v>       0.99712923       0.25598430       0.49978869 </v>
    <v>       0.99065626       0.49246820       0.50273833 </v>
    <v>       0.00183710       0.74654389       0.50083526 </v>
    <v>       0.25600412       0.99774032       0.50432220 </v>
    <v>       0.26308564       0.26036370       0.49737457 </v>
    <v>       0.24658875       0.50107010       0.49757145 </v>
    <v>       0.25091014       0.74365360       0.49917463 </v>
    <v>       0.49688316       0.99576631       0.49496139 </v>
    <v>       0.50670196       0.26367625       0.49771986 </v>
    <v>       0.50749169       0.50296013       0.50146002 </v>
    <v>       0.49801276       0.74657780       0.49725699 </v>
    <v>       0.74983141       0.00906325       0.49838207 </v>
    <v>       0.75072147       0.24639173       0.49994168 </v>
    <v>       0.76193866       0.50710669       0.50230072 </v>
    <v>       0.75290695       0.75510913       0.49855729 </v>
   </varray>
  </structure>
  <varray name="forces" >
   <v>       0.61733061       0.52720933       0.49872330 </v>
   <v>       0.62409262       0.32095275       0.99137254 </v>
   <v>       0.53906639       0.05938566      -0.10305409 </v>
   <v>      -0.98532510       0.40810312       0.29042123 </v>
   <v>      -0.94353933       0.12872292       0.54274100 </v>
   <v>      -0.77662238      -0.31768730       0.20711455 </v>
   <v>      -0.11342584       0.45993362      -0.05069222 </v>
   <v>       0.13392423       0.38413988      -0.16763795 </v>
   <v>      -0.02986113       0.65164908      -0.43076985 </v>
   <v>      -0.57734916       0.56033125       0.90887402 </v>
   <v>       0.22885412      -0.50978910       0.25691436 </v>
   <v>      -0.42895020       0.52632001      -0.07701088 </v>
   <v>       0.50731864      -0.19219565      -0.03455094 </v>
   <v>       0.16412292      -0.70574857      -0.33944472 </v>
   <v>      -0.31928191      -0.57914898      -0.30329765 </v>
   <v>       1.09068870       0.85509596      -0.25038907 </v>
   <v>      -0.32035669      -0.05865955      -0.48340451 </v>
   <v>       0.17994928       1.37515789      -0.42652441 </v>
   <v>      -0.00760510      -0.60880376      -1.05411239 </v>
   <v>       0.81732276       0.12739311      -0.14890192 </v>
   <v>      -0.52934172      -0.41384211      -0.64199140 </v>
   <v>       0.31029224      -0.20295650      -0.84149597 </v>
   <v>      -1.17824991      -0.24454842      -0.84152976 </v>
   <v>       0.29286730       0.23575054      -0.53159587 </v>
   <v>       0.62208004      -0.69210440       0.19036721 </v>
   <v>       0.08957921      -0.26723376       0.36063369 </v>
   <v>       0.34294999       0.44828137       0.18391506 </v>
   <v>      -0.29666747      -0.14885448       0.41427256 </v>
   <v>       0.12235787      -0.47456271       0.08624973 </v>
   <v>       0.44279240       0.68764810      -0.40872366 </v>
   <v>       0.39001682       0.28911493      -0.58835257 </v>
   <v>      -0.91929104       0.77691319      -0.14482332 </v>
   <v>      -0.00581487      -0.57024229       0.78283862 </v>
   <v>      -0.28201517      -0.11446194       0.60691453 </v>
   <v>      -0.59534918       0.14488595       0.27967008 </v>
   <v>      -0.03726595      -0.14330157       0.04263353 </v>
   <v>      -0.03993187      -0.02665248      -0.21172651 </v>
   <v>       0.03026477       0.60538885       0.05462035 </v>
   <v>       0.03873368      -0.49128570      -0.13531978 </v>
   <v>       0.50908820      -0.24122138       0.41496960 </v>
   <v>       0.11653416      -0.22202700       0.08062676 </v>
   <v>      -0.38085572      -0.05171837      -0.05390150 </v>
   <v>       0.27760310      -0.52748362       0.23545424 </v>
   <v>      -0.89692826       0.43809666      -0.13359278 </v>
   <v>       0.35914432       0.20602442      -0.11621275 </v>
   <v>       0.10426187       0.12933253       0.18843232 </v>
   <v>      -0.01897201      -0.00034589       0.71458090 </v>
   <v>       0.49220980       0.32623605      -0.37168169 </v>
   <v>       0.99812958      -0.36484779       0.06627816 </v>
   <v>       0.31574322      -0.15514991      -0.61645078 </v>
   <v>      -0.10694038       0.45780505      -0.90840317 </v>
   <v>      -0.07999710       0.09318076      -0.27575163 </v>
   <v>      -0.23456060      -0.36882124       0.42123970 </v>
   <v>      -0.29644018      -0.39714834      -0.27952428 </v>
   <v>       0.77108604       0.15037334      -0.41524337 </v>
   <v>       0.28993483      -0.27755939       0.12877126 </v>
   <v>       0.65711810       0.36480221      -0.03524308 </v>
   <v>      -0.36359906       0.04349889      -0.63632475 </v>
   <v>       0.32494076       0.09708767      -0.19484661 </v>
   <v>      -0.50333007      -0.19647735       0.45808738 </v>
   <v>      -0.66524202      -0.71215915       0.13230919 </v>
   <v>       0.30998730      -0.68248672      -0.25602110 </v>
   <v>      -0.27520659       0.69051405       0.29956174 </v>
   <v>       0.36375448       0.26407322      -0.04912354 </v>
   <v>       0.28979352       0.42809671      -0.37075188 </v>
   <v>       0.27531500      -1.05703489      -0.42666884 </v>
   <v>       0.22614042       0.74928787      -0.30617690 </v>
   <v>      -0.02572280       0.25102399       0.27123257 </v>
   <v>      -0.71669802       0.33035669      -0.54916932 </v>
   <v>      -0.69994922      -0.92252325       0.76471517 </v>
   <v>       0.71633126      -0.26371132       0.81563534 </v>
   <v>      -0.75957720       0.38155303       0.59354608 </v>
   <v>       0.05322986       0.42046546       0.89732577 </v>
   <v>       0.76153267      -1.18002736       0.58134688 </v>
   <v>      -0.24852338       0.39706514      -0.34654016 </v>
   <v>       0.39796540       0.21321166       0.73782026 </v>
   <v>       0.28124601      -0.77727554       0.17258238 </v>
   <v>      -0.94770260       0.14718007       0.05345591 </v>
   <v>      -0.95632170      -0.44735080      -0.39487781 </v>
   <v>       0.08711645      -0.54419441       0.22560740 </v>
  </varray>
  <varray name="stress" >
   <v>       2.34086226      -0.22735559       1.47154010 </v>
   <v>      -0.22735559       0.66710446       0.41424199 </v>
   <v>       1.47154008       0.41424198      -2.45290568 </v>
  </varray>
  <energy>
   <i name="e_fr_energy">   -526.79391908 </i>
   <i name="e_wo_entrp">   -526.79391908 </i>
   <i name="e_0_energy">     -0.00000000 </i>
  </energy>
  <time name="totalsc"> 5104.34 5104.82</time>
  <eigenvalues>
   <array>
    <dimension dim="1">band</dimension>
    <dimension dim="2">kpoint</dimension>
    <dimension dim="3">spin</dimension>
    <field>eigene</field>
    <field>occ</field>
    <set>
     <set comment="spin 1">
      <set comment="kpoint 1">
       <r>  -51.7943    1.0000 </r>
       <r>  -51.7262    1.0000 </r>
       <r>  -51.7230    1.0000 </r>
       <r>  -51.7061    1.0000 </r>
       <r>  -51.6967    1.0000 </r>
       <r>  -51.6757    1.0000 </r>
       <r>  -51.6638    1.0000 </r>
       <r>  -51.6481    1.0000 </r>
       <r>  -51.6386    1.0000 </r>
       <r>  -51.6366    1.0000 </r>
       <r>  -51.6026    1.0000 </r>
       <r>  -51.5217    1.0000 </r>
       <r>  -51.4992    1.0000 </r>
       <r>  -51.4943    1.0000 </r>
       <r>  -51.4819    1.0000 </r>
       <r>  -51.4638    1.0000 </r>
       <r>  -51.4582    1.0000 </r>
       <r>  -51.4499    1.0000 </r>
       <r>  -51.4198    1.0000 </r>
       <r>  -51.4127    1.0000 </r>
       <r>  -51.3961    1.0000 </r>
       <r>  -51.3948    1.0000 </r>
       <r>  -51.3910    1.0000 </r>
       <r>  -51.3637    1.0000 </r>
       <r>  -51.3582    1.0000 </r>
       <r>  -51.3377    1.0000 </r>
       <r>  -51.3325    1.0000 </r>
       <r>  -51.3268    1.0000 </r>
       <r>  -51.3001    1.0000 </r>
       <r>  -51.1686    1.0000 </r>
       <r>  -51.1288    1.0000 </r>
       <r>  -51.0431    1.0000 </r>
       <r>  -30.5182    1.0000 </r>
       <r>  -30.4750    1.0000 </r>
       <r>  -30.4618    1.0000 </r>
       <r>  -30.4548    1.0000 </r>
       <r>  -30.4478    1.0000 </r>
       <r>  -30.4395    1.0000 </r>
       <r>  -30.4332    1.0000 </r>
       <r>  -30.4224    1.0000 </r>
       <r>  -30.4110    1.0000 </r>
       <r>  -30.4000    1.0000 </r>
       <r>  -30.3972    1.0000 </r>
       <r>  -30.3854    1.0000 </r>
       <r>  -30.3815    1.0000 </r>
       <r>  -30.3642    1.0000 </r>
       <r>  -30.3599    1.0000 </r>
       <r>  -30.3513    1.0000 </r>
       <r>  -30.3459    1.0000 </r>
       <r>  -30.3400    1.0000 </r>
       <r>  -30.3385    1.0000 </r>
       <r>  -30.3346    1.0000 </r>
       <r>  -30.3287    1.0000 </r>
       <r>  -30.3220    1.0000 </r>
       <r>  -30.3135    1.0000 </r>
       <r>  -30.3106    1.0000 </r>
       <r>  -30.3076    1.0000 </r>
       <r>  -30.3019    1.0000 </r>
       <r>  -30.2913    1.0000 </r>
       <r>  -30.2874    1.0000 </r>
       <r>  -30.2747    1.0000 </r>
       <r>  -30.2678    1.0000 </r>
       <r>  -30.2496    1.0000 </r>
       <r>  -30.2360    1.0000 </r>
       <r>  -30.2316    1.0000 </r>
       <r>  -30.2255    1.0000 </r>
       <r>  -30.2245    1.0000 </r>
       <r>  -30.2180    1.0000 </r>
       <r>  -30.2016    1.0000 </r>
       <r>  -30.1938    1.0000 </r>
       <r>  -30.1877    1.0000 </r>
       <r>  -30.1834    1.0000 </r>
       <r>  -30.1732    1.0000 </r>
       <r>  -30.1591    1.0000 </r>
       <r>  -30.1542    1.0000 </r>
       <r>  -30.1518    1.0000 </r>
       <r>  -30.1426    1.0000 </r>
       <r>  -30.1371    1.0000 </r>
       <r>  -30.1312    1.0000 </r>
       <r>  -30.1264    1.0000 </r>
       <r>  -30.1249    1.0000 </r>
       <r>  -30.1183    1.0000 </r>
       <r>  -30.1132    1.0000 </r>
       <r>  -30.1099    1.0000 </r>
       <r>  -30.1057    1.0000 </r>
       <r>  -30.0963    1.0000 </r>
       <r>  -30.0880    1.0000 </r>
       <r>  -30.0757    1.0000 </r>
       <r>  -30.0734    1.0000 </r>
       <r>  -30.0711    1.0000 </r>
       <r>  -30.0696    1.0000 </r>
       <r>  -30.0675    1.0000 </r>
       <r>  -30.0508    1.0000 </r>
       <r>  -30.0483    1.0000 </r>
       <r>  -30.0386    1.0000 </r>
       <r>  -30.0356    1.0000 </r>
       <r>  -30.0329    1.0000 </r>
       <r>  -30.0289    1.0000 </r>
       <r>  -30.0265    1.0000 </r>
       <r>  -30.0175    1.0000 </r>
       <r>  -30.0154    1.0000 </r>
       <r>  -30.0095    1.0000 </r>
       <r>  -30.0072    1.0000 </r>
       <r>  -30.0021    1.0000 </r>
       <r>  -29.9968    1.0000 </r>
       <r>  -29.9928    1.0000 </r>
       <r>  -29.9875    1.0000 </r>
       <r>  -29.9833    1.0000 </r>
       <r>  -29.9816    1.0000 </r>
       <r>  -29.9791    1.0000 </r>
       <r>  -29.9708    1.0000 </r>
       <r>  -29.9583    1.0000 </r>
       <r>  -29.9536    1.0000 </r>
       <r>  -29.9525    1.0000 </r>
       <r>  -29.9470    1.0000 </r>
       <r>  -29.9382    1.0000 </r>
       <r>  -29.9360    1.0000 </r>
       <r>  -29.9164    1.0000 </r>
       <r>  -29.8837    1.0000 </r>
       <r>  -29.8762    1.0000 </r>
       <r>  -29.8036    1.0000 </r>
       <r>  -29.7925    1.0000 </r>
       <r>  -29.7775    1.0000 </r>
       <r>  -29.7553    1.0000 </r>
       <r>  -29.7307    1.0000 </r>
       <r>  -29.7254    1.0000 </r>
       <r>  -29.7176    1.0000 </r>
       <r>  -29.6909    1.0000 </r>
       <r>  -18.6034    1.0000 </r>
       <r>  -18.4672    1.0000 </r>
       <r>  -18.4591    1.0000 </r>
       <r>  -18.4106    1.0000 </r>
       <r>  -18.2951    1.0000 </r>
       <r>  -18.2483    1.0000 </r>
       <r>  -18.2362    1.0000 </r>
       <r>  -18.2231    1.0000 </r>
       <r>  -18.2138    1.0000 </r>
       <r>  -18.1519    1.0000 </r>
       <r>  -18.1492    1.0000 </r>
       <r>  -18.1125    1.0000 </r>
       <r>  -18.0596    1.0000 </r>
       <r>  -18.0522    1.0000 </r>
       <r>  -18.0479    1.0000 </r>
       <r>  -18.0123    1.0000 </r>
       <r>  -17.9794    1.0000 </r>
       <r>  -17.9248    1.0000 </r>
       <r>  -17.9005    1.0000 </r>
       <r>  -17.8857    1.0000 </r>
       <r>  -17.8477    1.0000 </r>
       <r>  -17.8439    1.0000 </r>
       <r>  -17.8267    1.0000 </r>
       <r>  -17.7903    1.0000 </r>
       <r>  -17.7659    1.0000 </r>
       <r>  -17.7535    1.0000 </r>
       <r>  -17.7120    1.0000 </r>
       <r>  -17.6834    1.0000 </r>
       <r>  -17.6238    1.0000 </r>
       <r>  -17.5762    1.0000 </r>
       <r>  -17.4421    1.0000 </r>
       <r>  -17.3750    1.0000 </r>
       <r>  -11.8792    1.0000 </r>
       <r>  -11.5388    1.0000 </r>
       <r>  -11.4989    1.0000 </r>
       <r>  -11.4915    1.0000 </r>
       <r>  -11.4452    1.0000 </r>
       <r>  -11.3745    1.0000 </r>
       <r>  -11.3577    1.0000 </r>
       <r>  -11.0808    1.0000 </r>
       <r>  -11.0283    1.0000 </r>
       <r>  -11.0165    1.0000 </r>
       <r>  -10.9746    1.0000 </r>
       <r>  -10.9537    1.0000 </r>
       <r>  -10.9521    1.0000 </r>
       <r>  -10.9276    1.0000 </r>
       <r>  -10.8586    1.0000 </r>
       <r>  -10.7944    1.0000 </r>
       <r>   -7.9843    1.0000 </r>
       <r>   -7.9710    1.0000 </r>
       <r>   -7.9450    1.0000 </r>
       <r>   -7.7789    1.0000 </r>
       <r>   -7.7668    1.0000 </r>
       <r>   -7.7531    1.0000 </r>
       <r>   -7.5720    1.0000 </r>
       <r>   -7.5525    1.0000 </r>
       <r>   -7.5177    1.0000 </r>
       <r>   -7.4401    1.0000 </r>
       <r>   -7.4255    1.0000 </r>
       <r>   -7.4101    1.0000 </r>
       <r>   -7.3848    1.0000 </r>
       <r>   -7.3784    1.0000 </r>
       <r>   -7.3519    1.0000 </r>
       <r>   -7.3244    1.0000 </r>
       <r>   -7.3065    1.0000 </r>
       <r>   -7.2807    1.0000 </r>
       <r>   -7.2417    1.0000 </r>
       <r>   -7.1973    1.0000 </r>
       <r>   -7.1417    1.0000 </r>
       <r>   -7.0860    1.0000 </r>
       <r>   -7.0228    1.0000 </r>
       <r>   -7.0027    1.0000 </r>
       <r>   -6.9769    1.0000 </r>
       <r>   -6.9391    1.0000 </r>
       <r>   -6.9141    1.0000 </r>
       <r>   -6.9096    1.0000 </r>
       <r>   -6.8977    1.0000 </r>
       <r>   -6.8681    1.0000 </r>
       <r>   -6.8302    1.0000 </r>
       <r>   -6.8225    1.0000 </r>
       <r>   -6.7963    1.0000 </r>
       <r>   -6.7768    1.0000 </r>
       <r>   -6.7523    1.0000 </r>
       <r>   -6.7343    1.0000 </r>
       <r>   -6.7227    1.0000 </r>
       <r>   -6.7077    1.0000 </r>
       <r>   -6.6864    1.0000 </r>
       <r>   -6.6743    1.0000 </r>
       <r>   -6.6469    1.0000 </r>
       <r>   -6.6401    1.0000 </r>
       <r>   -6.6284    1.0000 </r>
       <r>   -6.6059    1.0000 </r>
       <r>   -6.5845    1.0000 </r>
       <r>   -6.5726    1.0000 </r>
       <r>   -6.5640    1.0000 </r>
       <r>   -6.5540    1.0000 </r>
       <r>   -6.5458    1.0000 </r>
       <r>   -6.5282    1.0000 </r>
       <r>   -6.5137    1.0000 </r>
       <r>   -6.5062    1.0000 </r>
       <r>   -6.4958    1.0000 </r>
       <r>   -6.4743    1.0000 </r>
       <r>   -6.4609    1.0000 </r>
       <r>   -6.4536    1.0000 </r>
       <r>   -6.4483    1.0000 </r>
       <r>   -6.4214    1.0000 </r>
       <r>   -6.4118    1.0000 </r>
       <r>   -6.4074    1.0000 </r>
       <r>   -6.3837    1.0000 </r>
       <r>   -6.3701    1.0000 </r>
       <r>   -6.3609    1.0000 </r>
       <r>   -6.3535    1.0000 </r>
       <r>   -6.3448    1.0000 </r>
       <r>   -6.3123    1.0000 </r>
       <r>   -6.2934    1.0000 </r>
       <r>   -6.2800    1.0000 </r>
       <r>   -6.2688    1.0000 </r>
       <r>   -6.2309    1.0000 </r>
       <r>   -6.2015    1.0000 </r>
       <r>   -6.1626    1.0000 </r>
       <r>   -6.1403    1.0000 </r>
       <r>   -6.1009    1.0000 </r>
       <r>   -5.8798    1.0000 </r>
       <r>   -5.8341    1.0000 </r>
       <r>   -5.7883    1.0000 </r>
       <r>   -5.7688    1.0000 </r>
       <r>   -5.7419    1.0000 </r>
       <r>   -5.6777    1.0000 </r>
       <r>   -5.6442    1.0000 </r>
       <r>   -5.5955    1.0000 </r>
       <r>   -5.5357    1.0000 </r>
       <r>   -5.5163    1.0000 </r>
       <r>   -5.4727    1.0000 </r>
       <r>   -5.4480    1.0000 </r>
       <r>   -5.4229    1.0000 </r>
       <r>   -5.4124    1.0000 </r>
       <r>   -5.3868    1.0000 </r>
       <r>   -5.3596    1.0000 </r>
       <r>   -5.3181    1.0000 </r>
       <r>   -5.3051    1.0000 </r>
       <r>   -5.1862    1.0000 </r>
       <r>   -5.0980    1.0000 </r>
       <r>   -5.0488    1.0000 </r>
       <r>   -4.9841    1.0000 </r>
       <r>   -4.9566    1.0000 </r>
       <r>   -4.9224    1.0000 </r>
       <r>   -4.8716    1.0000 </r>
       <r>   -4.7258    1.0000 </r>
       <r>   -4.6745    1.0000 </r>
       <r>   -4.6648    1.0000 </r>
       <r>   -4.6290    1.0000 </r>
       <r>   -4.6046    1.0000 </r>
       <r>   -4.5778    1.0000 </r>
       <r>   -4.2936    1.0000 </r>
       <r>   -4.2520    1.0000 </r>
       <r>   -4.2317    1.0000 </r>
       <r>   -4.2094    1.0000 </r>
       <r>   -4.2051    1.0000 </r>
       <r>   -4.1739    1.0000 </r>
       <r>   -4.1441    1.0000 </r>
       <r>   -4.1025    1.0000 </r>
       <r>   -4.0943    1.0000 </r>
       <r>   -4.0738    1.0000 </r>
       <r>   -4.0454    1.0000 </r>
       <r>   -4.0371    1.0000 </r>
       <r>   -4.0152    1.0000 </r>
       <r>   -3.9829    1.0000 </r>
       <r>   -3.9444    1.0000 </r>
       <r>   -3.9212    1.0000 </r>
       <r>   -3.8829    1.0000 </r>
       <r>   -3.8648    1.0000 </r>
       <r>   -3.8245    1.0000 </r>
       <r>   -3.8046    1.0000 </r>
       <r>   -3.7690    1.0000 </r>
       <r>   -3.7381    1.0000 </r>
       <r>   -3.7260    1.0000 </r>
       <r>   -3.7048    1.0000 </r>
       <r>   -3.6674    1.0000 </r>
       <r>   -3.5774    1.0000 </r>
       <r>   -3.5004    1.0000 </r>
       <r>   -3.4897    1.0000 </r>
       <r>   -3.4730    1.0000 </r>
       <r>   -3.4231    1.0000 </r>
       <r>   -3.3915    1.0000 </r>
       <r>   -3.3673    1.0000 </r>
       <r>   -3.3571    1.0000 </r>
       <r>   -3.3406    1.0000 </r>
       <r>   -3.2969    1.0000 </r>
       <r>   -3.2495    1.0000 </r>
       <r>   -3.2165    1.0000 </r>
       <r>   -3.0781    1.0000 </r>
       <r>   -3.0652    1.0000 </r>
       <r>   -2.1914    0.0000 </r>
       <r>   -2.1708    0.0000 </r>
       <r>   -2.1409    0.0000 </r>
       <r>   -1.5795    0.0000 </r>
       <r>   -1.5698    0.0000 </r>
       <r>   -1.5338    0.0000 </r>
       <r>   -1.4910    0.0000 </r>
       <r>   -1.4698    0.0000 </r>
       <r>   -1.4501    0.0000 </r>
       <r>   -0.7759    0.0000 </r>
       <r>   -0.7422    0.0000 </r>
       <r>   -0.7295    0.0000 </r>
       <r>   -0.6894    0.0000 </r>
       <r>   -0.6765    0.0000 </r>
       <r>   -0.6338    0.0000 </r>
       <r>   -0.6157    0.0000 </r>
       <r>   -0.5951    0.0000 </r>
       <r>   -0.5380    0.0000 </r>
       <r>   -0.5199    0.0000 </r>
       <r>   -0.4960    0.0000 </r>
       <r>   -0.4608    0.0000 </r>
       <r>   -0.4279    0.0000 </r>
       <r>   -0.3852    0.0000 </r>
       <r>   -0.3411    0.0000 </r>
       <r>    0.0015    0.0000 </r>
       <r>    0.0375    0.0000 </r>
       <r>    0.0662    0.0000 </r>
       <r>    0.1009    0.0000 </r>
       <r>    0.1124    0.0000 </r>
       <r>    0.1262    0.0000 </r>
       <r>    0.1395    0.0000 </r>
       <r>    0.1536    0.0000 </r>
       <r>    0.1633    0.0000 </r>
       <r>    0.1834    0.0000 </r>
       <r>    0.2082    0.0000 </r>
       <r>    0.2514    0.0000 </r>
       <r>    0.5038    0.0000 </r>
       <r>    0.5425    0.0000 </r>
       <r>    0.5582    0.0000 </r>
       <r>    0.5911    0.0000 </r>
       <r>    0.6218    0.0000 </r>
       <r>    0.6325    0.0000 </r>
       <r>    0.6454    0.0000 </r>
       <r>    0.6725    0.0000 </r>
       <r>    0.6761    0.0000 </r>
       <r>    0.6898    0.0000 </r>
       <r>    0.7164    0.0000 </r>
       <r>    0.7294    0.0000 </r>
       <r>    0.7484    0.0000 </r>
       <r>    0.7559    0.0000 </r>
       <r>    0.7816    0.0000 </r>
       <r>    0.8016    0.0000 </r>
       <r>    0.8116    0.0000 </r>
       <r>    0.8327    0.0000 </r>
       <r>    0.8394    0.0000 </r>
       <r>    0.8481    0.0000 </r>
       <r>    0.8735    0.0000 </r>
       <r>    0.8785    0.0000 </r>
       <r>    0.8931    0.0000 </r>
       <r>    0.8994    0.0000 </r>
       <r>    0.9311    0.0000 </r>
       <r>    0.9373    0.0000 </r>
       <r>    0.9774    0.0000 </r>
       <r>    1.0132    0.0000 </r>
      </set>
      <set comment="kpoint 2">
       <r>  -51.7943    1.0000 </r>
       <r>  -51.7262    1.0000 </r>
       <r>  -51.7230    1.0000 </r>
       <r>  -51.7061    1.0000 </r>
       <r>  -51.6967    1.0000 </r>
       <r>  -51.6757    1.0000 </r>
       <r>  -51.6638    1.0000 </r>
       <r>  -51.6481    1.0000 </r>
       <r>  -51.6386    1.0000 </r>
       <r>  -51.6366    1.0000 </r>
       <r>  -51.6026    1.0000 </r>
       <r>  -51.5217    1.0000 </r>
       <r>  -51.4992    1.0000 </r>
       <r>  -51.4943    1.0000 </r>
       <r>  -51.4820    1.0000 </r>
       <r>  -51.4638    1.0000 </r>
       <r>  -51.4582    1.0000 </r>
       <r>  -51.4499    1.0000 </r>
       <r>  -51.4198    1.0000 </r>
       <r>  -51.4127    1.0000 </r>
       <r>  -51.3961    1.0000 </r>
       <r>  -51.3948    1.0000 </r>
       <r>  -51.3910    1.0000 </r>
       <r>  -51.3637    1.0000 </r>
       <r>  -51.3582    1.0000 </r>
       <r>  -51.3377    1.0000 </r>
       <r>  -51.3325    1.0000 </r>
       <r>  -51.3268    1.0000 </r>
       <r>  -51.3001    1.0000 </r>
       <r>  -51.1686    1.0000 </r>
       <r>  -51.1288    1.0000 </r>
       <r>  -51.0431    1.0000 </r>
       <r>  -30.5178    1.0000 </r>
       <r>  -30.4744    1.0000 </r>
       <r>  -30.4599    1.0000 </r>
       <r>  -30.4541    1.0000 </r>
       <r>  -30.4475    1.0000 </r>
       <r>  -30.4396    1.0000 </r>
       <r>  -30.4353    1.0000 </r>
       <r>  -30.4227    1.0000 </r>
       <r>  -30.4110    1.0000 </r>
       <r>  -30.3997    1.0000 </r>
       <r>  -30.3966    1.0000 </r>
       <r>  -30.3854    1.0000 </r>
       <r>  -30.3817    1.0000 </r>
       <r>  -30.3645    1.0000 </r>
       <r>  -30.3593    1.0000 </r>
       <r>  -30.3523    1.0000 </r>
       <r>  -30.3456    1.0000 </r>
       <r>  -30.3435    1.0000 </r>
       <r>  -30.3384    1.0000 </r>
       <r>  -30.3323    1.0000 </r>
       <r>  -30.3288    1.0000 </r>
       <r>  -30.3224    1.0000 </r>
       <r>  -30.3157    1.0000 </r>
       <r>  -30.3117    1.0000 </r>
       <r>  -30.3056    1.0000 </r>
       <r>  -30.3030    1.0000 </r>
       <r>  -30.2942    1.0000 </r>
       <r>  -30.2848    1.0000 </r>
       <r>  -30.2749    1.0000 </r>
       <r>  -30.2680    1.0000 </r>
       <r>  -30.2487    1.0000 </r>
       <r>  -30.2401    1.0000 </r>
       <r>  -30.2316    1.0000 </r>
       <r>  -30.2273    1.0000 </r>
       <r>  -30.2251    1.0000 </r>
       <r>  -30.2171    1.0000 </r>
       <r>  -30.2007    1.0000 </r>
       <r>  -30.1942    1.0000 </r>
       <r>  -30.1832    1.0000 </r>
       <r>  -30.1790    1.0000 </r>
       <r>  -30.1715    1.0000 </r>
       <r>  -30.1619    1.0000 </r>
       <r>  -30.1532    1.0000 </r>
       <r>  -30.1492    1.0000 </r>
       <r>  -30.1424    1.0000 </r>
       <r>  -30.1383    1.0000 </r>
       <r>  -30.1323    1.0000 </r>
       <r>  -30.1303    1.0000 </r>
       <r>  -30.1263    1.0000 </r>
       <r>  -30.1179    1.0000 </r>
       <r>  -30.1143    1.0000 </r>
       <r>  -30.1055    1.0000 </r>
       <r>  -30.1041    1.0000 </r>
       <r>  -30.0962    1.0000 </r>
       <r>  -30.0913    1.0000 </r>
       <r>  -30.0765    1.0000 </r>
       <r>  -30.0754    1.0000 </r>
       <r>  -30.0705    1.0000 </r>
       <r>  -30.0682    1.0000 </r>
       <r>  -30.0641    1.0000 </r>
       <r>  -30.0507    1.0000 </r>
       <r>  -30.0482    1.0000 </r>
       <r>  -30.0428    1.0000 </r>
       <r>  -30.0348    1.0000 </r>
       <r>  -30.0317    1.0000 </r>
       <r>  -30.0275    1.0000 </r>
       <r>  -30.0250    1.0000 </r>
       <r>  -30.0191    1.0000 </r>
       <r>  -30.0153    1.0000 </r>
       <r>  -30.0109    1.0000 </r>
       <r>  -30.0067    1.0000 </r>
       <r>  -30.0026    1.0000 </r>
       <r>  -29.9973    1.0000 </r>
       <r>  -29.9925    1.0000 </r>
       <r>  -29.9880    1.0000 </r>
       <r>  -29.9830    1.0000 </r>
       <r>  -29.9814    1.0000 </r>
       <r>  -29.9782    1.0000 </r>
       <r>  -29.9681    1.0000 </r>
       <r>  -29.9600    1.0000 </r>
       <r>  -29.9551    1.0000 </r>
       <r>  -29.9533    1.0000 </r>
       <r>  -29.9474    1.0000 </r>
       <r>  -29.9386    1.0000 </r>
       <r>  -29.9331    1.0000 </r>
       <r>  -29.9161    1.0000 </r>
       <r>  -29.8844    1.0000 </r>
       <r>  -29.8762    1.0000 </r>
       <r>  -29.8036    1.0000 </r>
       <r>  -29.7929    1.0000 </r>
       <r>  -29.7776    1.0000 </r>
       <r>  -29.7555    1.0000 </r>
       <r>  -29.7307    1.0000 </r>
       <r>  -29.7254    1.0000 </r>
       <r>  -29.7176    1.0000 </r>
       <r>  -29.6910    1.0000 </r>
       <r>  -18.5939    1.0000 </r>
       <r>  -18.4727    1.0000 </r>
       <r>  -18.4468    1.0000 </r>
       <r>  -18.4242    1.0000 </r>
       <r>  -18.3311    1.0000 </r>
       <r>  -18.2400    1.0000 </r>
       <r>  -18.2310    1.0000 </r>
       <r>  -18.2242    1.0000 </r>
       <r>  -18.2164    1.0000 </r>
       <r>  -18.1488    1.0000 </r>
       <r>  -18.1418    1.0000 </r>
       <r>  -18.1066    1.0000 </r>
       <r>  -18.0626    1.0000 </r>
       <r>  -18.0446    1.0000 </r>
       <r>  -18.0283    1.0000 </r>
       <r>  -18.0044    1.0000 </r>
       <r>  -17.9868    1.0000 </r>
       <r>  -17.9373    1.0000 </r>
       <r>  -17.9046    1.0000 </r>
       <r>  -17.8666    1.0000 </r>
       <r>  -17.8433    1.0000 </r>
       <r>  -17.8391    1.0000 </r>
       <r>  -17.8130    1.0000 </r>
       <r>  -17.8057    1.0000 </r>
       <r>  -17.7945    1.0000 </r>
       <r>  -17.7589    1.0000 </r>
       <r>  -17.7159    1.0000 </r>
       <r>  -17.6815    1.0000 </r>
       <r>  -17.6185    1.0000 </r>
[...]
       <r>   -32.3598     0.0000    64.0000 </r>
       <r>   -32.1662     0.0000    64.0000 </r>
       <r>   -31.9725     0.0000    64.0000 </r>
       <r>   -31.7789     0.0000    64.0000 </r>
       <r>   -31.5853     0.0000    64.0000 </r>
       <r>   -31.3916     0.0000    64.0000 </r>
       <r>   -31.1980     0.0000    64.0000 </r>
       <r>   -31.0043     0.0000    64.0000 </r>
       <r>   -30.8107     0.0000    64.0000 </r>
       <r>   -30.6171     0.0264    64.0051 </r>
       <r>   -30.4234    76.1305    78.7470 </r>
       <r>   -30.2298   268.5673   130.7525 </r>
       <r>   -30.0361   319.9796   192.7134 </r>
       <r>   -29.8425   243.5481   239.8741 </r>
       <r>   -29.6489    81.5265   255.6609 </r>
       <r>   -29.4552     1.7511   256.0000 </r>
       <r>   -29.2616     0.0000   256.0000 </r>
       <r>   -29.0679     0.0000   256.0000 </r>
       <r>   -28.8743     0.0000   256.0000 </r>
       <r>   -28.6807     0.0000   256.0000 </r>
       <r>   -28.4870     0.0000   256.0000 </r>
       <r>   -28.2934     0.0000   256.0000 </r>
       <r>   -28.0997     0.0000   256.0000 </r>
       <r>   -27.9061     0.0000   256.0000 </r>
       <r>   -27.7125     0.0000   256.0000 </r>
       <r>   -27.5188     0.0000   256.0000 </r>
       <r>   -27.3252     0.0000   256.0000 </r>
       <r>   -27.1315     0.0000   256.0000 </r>
       <r>   -26.9379     0.0000   256.0000 </r>
       <r>   -26.7443     0.0000   256.0000 </r>
       <r>   -26.5506     0.0000   256.0000 </r>
       <r>   -26.3570     0.0000   256.0000 </r>
       <r>   -26.1633     0.0000   256.0000 </r>
       <r>   -25.9697     0.0000   256.0000 </r>
       <r>   -25.7761     0.0000   256.0000 </r>
       <r>   -25.5824     0.0000   256.0000 </r>
       <r>   -25.3888     0.0000   256.0000 </r>
       <r>   -25.1951     0.0000   256.0000 </r>
       <r>   -25.0015     0.0000   256.0000 </r>
       <r>   -24.8079     0.0000   256.0000 </r>
       <r>   -24.6142     0.0000   256.0000 </r>
       <r>   -24.4206     0.0000   256.0000 </r>
       <r>   -24.2269     0.0000   256.0000 </r>
       <r>   -24.0333     0.0000   256.0000 </r>
       <r>   -23.8397     0.0000   256.0000 </r>
       <r>   -23.6460     0.0000   256.0000 </r>
       <r>   -23.4524     0.0000   256.0000 </r>
       <r>   -23.2587     0.0000   256.0000 </r>
       <r>   -23.0651     0.0000   256.0000 </r>
       <r>   -22.8714     0.0000   256.0000 </r>
       <r>   -22.6778     0.0000   256.0000 </r>
       <r>   -22.4842     0.0000   256.0000 </r>
       <r>   -22.2905     0.0000   256.0000 </r>
       <r>   -22.0969     0.0000   256.0000 </r>
       <r>   -21.9032     0.0000   256.0000 </r>
       <r>   -21.7096     0.0000   256.0000 </r>
       <r>   -21.5160     0.0000   256.0000 </r>
       <r>   -21.3223     0.0000   256.0000 </r>
       <r>   -21.1287     0.0000   256.0000 </r>
       <r>   -20.9350     0.0000   256.0000 </r>
       <r>   -20.7414     0.0000   256.0000 </r>
       <r>   -20.5478     0.0000   256.0000 </r>
       <r>   -20.3541     0.0000   256.0000 </r>
       <r>   -20.1605     0.0000   256.0000 </r>
       <r>   -19.9668     0.0000   256.0000 </r>
       <r>   -19.7732     0.0000   256.0000 </r>
       <r>   -19.5796     0.0000   256.0000 </r>
       <r>   -19.3859     0.0000   256.0000 </r>
       <r>   -19.1923     0.0000   256.0000 </r>
       <r>   -18.9986     0.0000   256.0000 </r>
       <r>   -18.8050     0.0000   256.0000 </r>
       <r>   -18.6114     3.0860   256.5976 </r>
       <r>   -18.4177    30.0196   262.4106 </r>
       <r>   -18.2241    39.9661   270.1496 </r>
       <r>   -18.0304    74.8984   284.6529 </r>
       <r>   -17.8368    73.5457   298.8944 </r>
       <r>   -17.6432    69.1945   312.2932 </r>
       <r>   -17.4495    23.5910   316.8614 </r>
       <r>   -17.2559    16.2045   319.9992 </r>
       <r>   -17.0622     0.0041   320.0000 </r>
       <r>   -16.8686     0.0000   320.0000 </r>
       <r>   -16.6750     0.0000   320.0000 </r>
       <r>   -16.4813     0.0000   320.0000 </r>
       <r>   -16.2877     0.0000   320.0000 </r>
       <r>   -16.0940     0.0000   320.0000 </r>
       <r>   -15.9004     0.0000   320.0000 </r>
       <r>   -15.7068     0.0000   320.0000 </r>
       <r>   -15.5131     0.0000   320.0000 </r>
       <r>   -15.3195     0.0000   320.0000 </r>
       <r>   -15.1258     0.0000   320.0000 </r>
       <r>   -14.9322     0.0000   320.0000 </r>
       <r>   -14.7386     0.0000   320.0000 </r>
       <r>   -14.5449     0.0000   320.0000 </r>
       <r>   -14.3513     0.0000   320.0000 </r>
       <r>   -14.1576     0.0000   320.0000 </r>
       <r>   -13.9640     0.0000   320.0000 </r>
       <r>   -13.7704     0.0000   320.0000 </r>
       <r>   -13.5767     0.0000   320.0000 </r>
       <r>   -13.3831     0.0000   320.0000 </r>
       <r>   -13.1894     0.0000   320.0000 </r>
       <r>   -12.9958     0.0000   320.0000 </r>
       <r>   -12.8022     0.0000   320.0000 </r>
       <r>   -12.6085     0.0000   320.0000 </r>
       <r>   -12.4149     0.0000   320.0000 </r>
       <r>   -12.2212     0.0000   320.0000 </r>
       <r>   -12.0276     0.0000   320.0000 </r>
       <r>   -11.8340     4.4479   320.8613 </r>
       <r>   -11.6403    15.7032   323.9021 </r>
       <r>   -11.4467    18.9763   327.5766 </r>
       <r>   -11.2530    23.7858   332.1825 </r>
       <r>   -11.0594    34.5702   338.8767 </r>
       <r>   -10.8658    47.6282   348.0995 </r>
       <r>   -10.6721    20.1165   351.9948 </r>
       <r>   -10.4785     0.0268   352.0000 </r>
       <r>   -10.2848     0.0000   352.0000 </r>
       <r>   -10.0912     0.0000   352.0000 </r>
       <r>    -9.8976     0.0000   352.0000 </r>
       <r>    -9.7039     0.0000   352.0000 </r>
       <r>    -9.5103     0.0000   352.0000 </r>
       <r>    -9.3166     0.0000   352.0000 </r>
       <r>    -9.1230     0.0000   352.0000 </r>
       <r>    -8.9294     0.0000   352.0000 </r>
       <r>    -8.7357     0.0000   352.0000 </r>
       <r>    -8.5421     0.0000   352.0000 </r>
       <r>    -8.3484     0.0000   352.0000 </r>
       <r>    -8.1548     0.0000   352.0000 </r>
       <r>    -7.9612     2.6255   352.5084 </r>
       <r>    -7.7675    28.9419   358.1127 </r>
       <r>    -7.5739    45.5755   366.9380 </r>
       <r>    -7.3802    70.0783   380.5079 </r>
       <r>    -7.1866    63.6334   392.8299 </r>
       <r>    -6.9929    59.9274   404.4343 </r>
       <r>    -6.7993    91.7429   422.1994 </r>
       <r>    -6.6057   108.5346   443.2161 </r>
       <r>    -6.4120   109.4686   464.4136 </r>
       <r>    -6.2184    82.4282   480.3750 </r>
       <r>    -6.0247    66.4453   493.2415 </r>
       <r>    -5.8311    58.5237   504.5740 </r>
       <r>    -5.6375    59.2693   516.0509 </r>
       <r>    -5.4438    58.6206   527.4022 </r>
       <r>    -5.2502    46.5225   536.4109 </r>
       <r>    -5.0565    29.0546   542.0370 </r>
       <r>    -4.8629    26.0984   547.0907 </r>
       <r>    -4.6693    44.0813   555.6266 </r>
       <r>    -4.4756    39.2704   563.2310 </r>
       <r>    -4.2820    29.4460   568.9329 </r>
       <r>    -4.0883    29.3391   574.6141 </r>
       <r>    -3.8947    77.1621   589.5558 </r>
       <r>    -3.7011    92.0287   607.3763 </r>
       <r>    -3.5074    69.5862   620.8510 </r>
       <r>    -3.3138    62.2991   632.9146 </r>
       <r>    -3.1201    30.4499   638.8109 </r>
       <r>    -2.9265     6.1407   640.0000 </r>
       <r>    -2.7329     0.0001   640.0000 </r>
       <r>    -2.5392     0.0000   640.0000 </r>
       <r>    -2.3456     0.0000   640.0000 </r>
       <r>    -2.1519     2.6466   640.5125 </r>
       <r>    -1.9583     8.2766   642.1152 </r>
       <r>    -1.7647    25.8914   647.1288 </r>
       <r>    -1.5710    10.3586   649.1346 </r>
       <r>    -1.3774    19.7263   652.9544 </r>
       <r>    -1.1837    26.6377   658.1126 </r>
       <r>    -0.9901    32.9000   664.4833 </r>
       <r>    -0.7965    10.0906   666.4373 </r>
       <r>    -0.6028    31.4009   672.5177 </r>
       <r>    -0.4092    35.5179   679.3954 </r>
       <r>    -0.2155    28.7483   684.9623 </r>
       <r>    -0.0219    33.2181   691.3946 </r>
       <r>     0.1717    37.8308   698.7202 </r>
       <r>     0.3654    34.3044   705.3629 </r>
       <r>     0.5590    53.5036   715.7234 </r>
       <r>     0.7527   119.1540   738.7964 </r>
       <r>     0.9463   124.3690   762.8792 </r>
       <r>     1.1399    26.4437   767.9998 </r>
       <r>     1.3336     0.0012   768.0000 </r>
       <r>     1.5272     0.0000   768.0000 </r>
       <r>     1.7209     0.0000   768.0000 </r>
       <r>     1.9145     0.0000   768.0000 </r>
       <r>     2.1081     0.0000   768.0000 </r>
       <r>     2.3018     0.0000   768.0000 </r>
       <r>     2.4954     0.0000   768.0000 </r>
       <r>     2.6891     0.0000   768.0000 </r>
       <r>     2.8827     0.0000   768.0000 </r>
       <r>     3.0763     0.0000   768.0000 </r>
       <r>     3.2700     0.0000   768.0000 </r>
       <r>     3.4636     0.0000   768.0000 </r>
       <r>     3.6573     0.0000   768.0000 </r>
      </set>
     </set>
    </array>
   </total>
  </dos>
 </calculation>
 <structure name="finalpos" >
  <crystal>
   <varray name="basis" >
    <v>      13.79398668       0.00000000       0.00000000 </v>
    <v>      -6.89699334      11.94594288       0.00000000 </v>
    <v>       0.00000000       0.00000000      27.81022107 </v>
   </varray>
   <i name="volume">   4582.62876984 </i>
   <varray name="rec_basis" >
    <v>       0.07249536       0.04185521       0.00000000 </v>
    <v>       0.00000000       0.08371043       0.00000000 </v>
    <v>       0.00000000       0.00000000       0.03595800 </v>
   </varray>
  </crystal>
  <varray name="positions" >
   <v>       0.07040591       0.16044642       0.54210716 </v>
   <v>       0.07413141       0.41093903       0.54247695 </v>
   <v>       0.07756479       0.65770180       0.54725167 </v>
   <v>       0.09352651       0.91575917       0.54600623 </v>
   <v>       0.34639554       0.17169874       0.54292292 </v>
   <v>       0.34063128       0.41727474       0.54579206 </v>
   <v>       0.32558467       0.65364058       0.54537878 </v>
   <v>       0.32917654       0.90729057       0.54424090 </v>
   <v>       0.58444359       0.16094324       0.54481070 </v>
   <v>       0.59313102       0.41618508       0.54270686 </v>
   <v>       0.58512898       0.67182021       0.54300666 </v>
   <v>       0.58066835       0.90883386       0.54065705 </v>
   <v>       0.82451215       0.16725950       0.54552390 </v>
   <v>       0.83395644       0.42076177       0.54717525 </v>
   <v>       0.83772834       0.67303321       0.54717863 </v>
   <v>       0.82511567       0.91427124       0.54230510 </v>
   <v>       0.17287066       0.08577639       0.45907264 </v>
   <v>       0.16036041       0.32329469       0.45545706 </v>
   <v>       0.16929759       0.58280970       0.45782107 </v>
   <v>       0.16041037       0.82595318       0.45572714 </v>
   <v>       0.42269043       0.08513936       0.45667846 </v>
   <v>       0.41907076       0.33946221       0.45700618 </v>
   <v>       0.42486212       0.58314270       0.45732478 </v>
   <v>       0.41024351       0.82795695       0.45522869 </v>
   <v>       0.66145212       0.08725373       0.45299497 </v>
   <v>       0.67028658       0.33896114       0.45401299 </v>
   <v>       0.66714704       0.58489311       0.45444038 </v>
   <v>       0.67058573       0.83520841       0.45239604 </v>
   <v>       0.91404507       0.08750033       0.45344368 </v>
   <v>       0.90826982       0.32734263       0.45607252 </v>
   <v>       0.91451903       0.57867023       0.45775432 </v>
   <v>       0.92233641       0.82648567       0.45639597 </v>
   <v>       0.08498853       0.17533447       0.38940454 </v>
   <v>       0.08937698       0.41897080       0.39263265 </v>
   <v>       0.09265945       0.66364234       0.39478186 </v>
   <v>       0.08769358       0.92323299       0.39750332 </v>
   <v>       0.33594063       0.16918130       0.39921830 </v>
   <v>       0.33134074       0.40872330       0.39559098 </v>
   <v>       0.33934403       0.67350344       0.39621206 </v>
   <v>       0.32566676       0.92479135       0.39360947 </v>
   <v>       0.58240863       0.17545638       0.39352065 </v>
   <v>       0.59535676       0.42471139       0.39468129 </v>
   <v>       0.58465801       0.67268569       0.39295107 </v>
   <v>       0.59228263       0.91209135       0.39408642 </v>
   <v>       0.82372737       0.16442283       0.39400307 </v>
   <v>       0.83429375       0.41661613       0.39413113 </v>
   <v>       0.83948822       0.66822803       0.39096436 </v>
   <v>       0.83251305       0.91390525       0.39737054 </v>
   <v>       0.15767378       0.09364848       0.60218701 </v>
   <v>       0.16354902       0.33769617       0.60551133 </v>
   <v>       0.15934480       0.57323562       0.61125620 </v>
   <v>       0.16612645       0.82890846       0.60808710 </v>
   <v>       0.42248782       0.08935367       0.60167331 </v>
   <v>       0.43124152       0.34267326       0.60576942 </v>
   <v>       0.40221108       0.58074752       0.60873692 </v>
   <v>       0.41382615       0.83357364       0.60254196 </v>
   <v>       0.64680764       0.06850868       0.60463444 </v>
   <v>       0.67093563       0.32838550       0.60919091 </v>
   <v>       0.66107772       0.58529755       0.60492134 </v>
   <v>       0.67217023       0.83851725       0.60181720 </v>
   <v>       0.92572251       0.09990934       0.60416515 </v>
   <v>       0.91468499       0.34287386       0.60766752 </v>
   <v>       0.91384311       0.57695063       0.60625242 </v>
   <v>       0.90907132       0.83301071       0.60546024 </v>
   <v>       0.99725779       0.99773330       0.50091901 </v>
   <v>       0.99712923       0.25598430       0.49978869 </v>
   <v>       0.99065626       0.49246820       0.50273833 </v>
   <v>       0.00183710       0.74654389       0.50083526 </v>
   <v>       0.25600412       0.99774032       0.50432220 </v>
   <v>       0.26308564       0.26036370       0.49737457 </v>
   <v>       0.24658875       0.50107010       0.49757145 </v>
   <v>       0.25091014       0.74365360       0.49917463 </v>
   <v>       0.49688316       0.99576631       0.49496139 </v>
   <v>       0.50670196       0.26367625       0.49771986 </v>
   <v>       0.50749169       0.50296013       0.50146002 </v>
   <v>       0.49801276       0.74657780       0.49725699 </v>
   <v>       0.74983141       0.00906325       0.49838207 </v>
   <v>       0.75072147       0.24639173       0.49994168 </v>
   <v>       0.76193866       0.50710669       0.50230072 </v>
   <v>       0.75290695       0.75510913       0.49855729 </v>
  </varray>
  <varray name="velocities" >
   <v>       0.00000000       0.00000000       0.00000000 </v>
   <v>       0.00000000       0.00000000       0.00000000 </v>
   <v>       0.00000000       0.00000000       0.00000000 </v>
   <v>       0.00000000       0.00000000       0.00000000 </v>
   <v>       0.00000000       0.00000000       0.00000000 </v>
   <v>       0.00000000       0.00000000       0.00000000 </v>
   <v>       0.00000000       0.00000000       0.00000000 </v>
   <v>       0.00000000       0.00000000       0.00000000 </v>
   <v>       0.00000000       0.00000000       0.00000000 </v>
   <v>       0.00000000       0.00000000       0.00000000 </v>
   <v>       0.00000000       0.00000000       0.00000000 </v>
   <v>       0.00000000       0.00000000       0.00000000 </v>
   <v>       0.00000000       0.00000000       0.00000000 </v>
   <v>       0.00000000       0.00000000       0.00000000 </v>
   <v>       0.00000000       0.00000000       0.00000000 </v>
   <v>       0.00000000       0.00000000       0.00000000 </v>
   <v>       0.00000000       0.00000000       0.00000000 </v>
   <v>       0.00000000       0.00000000       0.00000000 </v>
   <v>       0.00000000       0.00000000       0.00000000 </v>
   <v>       0.00000000       0.00000000       0.00000000 </v>
   <v>       0.00000000       0.00000000       0.00000000 </v>
   <v>       0.00000000       0.00000000       0.00000000 </v>
   <v>       0.00000000       0.00000000       0.00000000 </v>
   <v>       0.00000000       0.00000000       0.00000000 </v>
   <v>       0.00000000       0.00000000       0.00000000 </v>
   <v>       0.00000000       0.00000000       0.00000000 </v>
   <v>       0.00000000       0.00000000       0.00000000 </v>
   <v>       0.00000000       0.00000000       0.00000000 </v>
   <v>       0.00000000       0.00000000       0.00000000 </v>
   <v>       0.00000000       0.00000000       0.00000000 </v>
   <v>       0.00000000       0.00000000       0.00000000 </v>
   <v>       0.00000000       0.00000000       0.00000000 </v>
   <v>       0.00000000       0.00000000       0.00000000 </v>
   <v>       0.00000000       0.00000000       0.00000000 </v>
   <v>       0.00000000       0.00000000       0.00000000 </v>
   <v>       0.00000000       0.00000000       0.00000000 </v>
   <v>       0.00000000       0.00000000       0.00000000 </v>
   <v>       0.00000000       0.00000000       0.00000000 </v>
   <v>       0.00000000       0.00000000       0.00000000 </v>
   <v>       0.00000000       0.00000000       0.00000000 </v>
   <v>       0.00000000       0.00000000       0.00000000 </v>
   <v>       0.00000000       0.00000000       0.00000000 </v>
   <v>       0.00000000       0.00000000       0.00000000 </v>
   <v>       0.00000000       0.00000000       0.00000000 </v>
   <v>       0.00000000       0.00000000       0.00000000 </v>
   <v>       0.00000000       0.00000000       0.00000000 </v>
   <v>       0.00000000       0.00000000       0.00000000 </v>
   <v>       0.00000000       0.00000000       0.00000000 </v>
   <v>       0.00000000       0.00000000       0.00000000 </v>
   <v>       0.00000000       0.00000000       0.00000000 </v>
   <v>       0.00000000       0.00000000       0.00000000 </v>
   <v>       0.00000000       0.00000000       0.00000000 </v>
   <v>       0.00000000       0.00000000       0.00000000 </v>
   <v>       0.00000000       0.00000000       0.00000000 </v>
   <v>       0.00000000       0.00000000       0.00000000 </v>
   <v>       0.00000000       0.00000000       0.00000000 </v>
   <v>       0.00000000       0.00000000       0.00000000 </v>
   <v>       0.00000000       0.00000000       0.00000000 </v>
   <v>       0.00000000       0.00000000       0.00000000 </v>
   <v>       0.00000000       0.00000000       0.00000000 </v>
   <v>       0.00000000       0.00000000       0.00000000 </v>
   <v>       0.00000000       0.00000000       0.00000000 </v>
   <v>       0.00000000       0.00000000       0.00000000 </v>
   <v>       0.00000000       0.00000000       0.00000000 </v>
   <v>       0.00000000       0.00000000       0.00000000 </v>
   <v>       0.00000000       0.00000000       0.00000000 </v>
   <v>       0.00000000       0.00000000       0.00000000 </v>
   <v>       0.00000000       0.00000000       0.00000000 </v>
   <v>       0.00000000       0.00000000       0.00000000 </v>
   <v>       0.00000000       0.00000000       0.00000000 </v>
   <v>       0.00000000       0.00000000       0.00000000 </v>
   <v>       0.00000000       0.00000000       0.00000000 </v>
   <v>       0.00000000       0.00000000       0.00000000 </v>
   <v>       0.00000000       0.00000000       0.00000000 </v>
   <v>       0.00000000       0.00000000       0.00000000 </v>
   <v>       0.00000000       0.00000000       0.00000000 </v>
   <v>       0.00000000       0.00000000       0.00000000 </v>
   <v>       0.00000000       0.00000000       0.00000000 </v>
   <v>       0.00000000       0.00000000       0.00000000 </v>
   <v>       0.00000000       0.00000000       0.00000000 </v>
  </varray>
 </structure>
</modeling>
